 DBCSR| CPU Multiplication driver                                           XSMM
 DBCSR| Multrec recursion limit                                              512
 DBCSR| Multiplication stack size                                           1000
 DBCSR| Maximum elements for images                                    UNLIMITED
 DBCSR| Multiplicative factor virtual images                                   1
 DBCSR| Use multiplication densification                                       T
 DBCSR| Multiplication size stacks                                             3
 DBCSR| Use memory pool for CPU allocation                                     F
 DBCSR| Number of 3D layers                                               SINGLE
 DBCSR| Use MPI memory allocation                                              F
 DBCSR| Use RMA algorithm                                                      F
 DBCSR| Use Communication thread                                               T
 DBCSR| Communication thread load                                             87
 DBCSR| MPI: My node id                                                        0
 DBCSR| MPI: Number of nodes                                                  48
 DBCSR| OMP: Current number of threads                                         1
 DBCSR| OMP: Max number of threads                                             1
 DBCSR| Split modifier for TAS multiplication algorithm                  1.0E+00


  **** **** ******  **  PROGRAM STARTED AT               2023-03-02 21:39:45.741
 ***** ** ***  *** **   PROGRAM STARTED ON                               c51-029
 **    ****   ******    PROGRAM STARTED BY                                 jxzhu
 ***** **    ** ** **   PROGRAM PROCESS ID                                 10381
  **** **  *******  **  PROGRAM STARTED IN /data/jxzhu/2022_leiden/03.e_polariza
                                           bility/19.water_layer_test/pbc/00

 CP2K| version string:                                          CP2K version 8.2
 CP2K| source code revision number:                                  git:310b7ab
 CP2K| cp2kflags: omp libint fftw3 libxc elpa parallel mpi3 scalapack cosma xsmm
 CP2K|             spglib mkl libvori libbqb
 CP2K| is freely available from                            https://www.cp2k.org/
 CP2K| Program compiled at                          Sat Nov 27 14:32:28 CST 2021
 CP2K| Program compiled on                                               login01
 CP2K| Program compiled for                                                local
 CP2K| Data directory path                                    /data/jxzhu/basis/
 CP2K| Input file name                                                 input.inp

 GLOBAL| Force Environment number                                              1
 GLOBAL| Basis set file name                      /data/jxzhu/basis/BASIS_MOLOPT
 GLOBAL| Potential file name                    /data/jxzhu/basis/GTH_POTENTIALS
 GLOBAL| MM Potential file name                                     MM_POTENTIAL
 GLOBAL| Coordinate file name                                          coord.xyz
 GLOBAL| Method name                                                        CP2K
 GLOBAL| Project name                                                       cp2k
 GLOBAL| Run type                                                   ENERGY_FORCE
 GLOBAL| FFT library                                                       FFTW3
 GLOBAL| Diagonalization library                                            ELPA
 GLOBAL| Minimum number of eigenvectors for ELPA usage                        16
 GLOBAL| Orthonormality check for eigenvectors                          DISABLED
 GLOBAL| Matrix multiplication library                                     COSMA
 GLOBAL| All-to-all communication in single precision                          F
 GLOBAL| FFTs using library dependent lengths                                  F
 GLOBAL| Grid backend                                                       AUTO
 GLOBAL| Global print level                                               MEDIUM
 GLOBAL| MPI I/O enabled                                                       T
 GLOBAL| Total number of message passing processes                            48
 GLOBAL| Number of threads for this process                                    1
 GLOBAL| This output is from process                                           0
 GLOBAL| CPU model name                Intel(R) Xeon(R) CPU E5-2680 v3 @ 2.50GHz
 GLOBAL| CPUID                                                              1002

 MEMORY| system memory details [Kb]
 MEMORY|                        rank 0           min           max       average
 MEMORY| MemTotal             65234672      65234672      65549312      65391992
 MEMORY| MemFree              58524204      58201464      58524204      58362834
 MEMORY| Buffers                     0             0             0             0
 MEMORY| Cached                 573708        573708       1132888        853298
 MEMORY| Slab                   318228        306392        318228        312310
 MEMORY| SReclaimable            87660         87660        108672         98166
 MEMORY| MemLikelyFree        59185572      59185572      59443024      59314298


 *** Fundamental physical constants (SI units) ***

 *** Literature: B. J. Mohr and B. N. Taylor,
 ***             CODATA recommended values of the fundamental physical
 ***             constants: 2006, Web Version 5.1
 ***             http://physics.nist.gov/constants

 Speed of light in vacuum [m/s]                             2.99792458000000E+08
 Magnetic constant or permeability of vacuum [N/A**2]       1.25663706143592E-06
 Electric constant or permittivity of vacuum [F/m]          8.85418781762039E-12
 Planck constant (h) [J*s]                                  6.62606896000000E-34
 Planck constant (h-bar) [J*s]                              1.05457162825177E-34
 Elementary charge [C]                                      1.60217648700000E-19
 Electron mass [kg]                                         9.10938215000000E-31
 Electron g factor [ ]                                     -2.00231930436220E+00
 Proton mass [kg]                                           1.67262163700000E-27
 Fine-structure constant                                    7.29735253760000E-03
 Rydberg constant [1/m]                                     1.09737315685270E+07
 Avogadro constant [1/mol]                                  6.02214179000000E+23
 Boltzmann constant [J/K]                                   1.38065040000000E-23
 Atomic mass unit [kg]                                      1.66053878200000E-27
 Bohr radius [m]                                            5.29177208590000E-11

 *** Conversion factors ***

 [u] -> [a.u.]                                              1.82288848426455E+03
 [Angstrom] -> [Bohr] = [a.u.]                              1.88972613288564E+00
 [a.u.] = [Bohr] -> [Angstrom]                              5.29177208590000E-01
 [a.u.] -> [s]                                              2.41888432650478E-17
 [a.u.] -> [fs]                                             2.41888432650478E-02
 [a.u.] -> [J]                                              4.35974393937059E-18
 [a.u.] -> [N]                                              8.23872205491840E-08
 [a.u.] -> [K]                                              3.15774647902944E+05
 [a.u.] -> [kJ/mol]                                         2.62549961709828E+03
 [a.u.] -> [kcal/mol]                                       6.27509468713739E+02
 [a.u.] -> [Pa]                                             2.94210107994716E+13
 [a.u.] -> [bar]                                            2.94210107994716E+08
 [a.u.] -> [atm]                                            2.90362800883016E+08
 [a.u.] -> [eV]                                             2.72113838565563E+01
 [a.u.] -> [Hz]                                             6.57968392072181E+15
 [a.u.] -> [1/cm] (wave numbers)                            2.19474631370540E+05
 [a.u./Bohr**2] -> [1/cm]                                   5.14048714338585E+03
 

 CELL_TOP| Volume [angstrom^3]:                                      4545.422225
 CELL_TOP| Vector a [angstrom    11.246     0.000     0.000   |a| =    11.246000
 CELL_TOP| Vector b [angstrom     0.000    11.246     0.000   |b| =    11.246000
 CELL_TOP| Vector c [angstrom     0.000     0.000    35.940   |c| =    35.940000
 CELL_TOP| Angle (b,c), alpha [degree]:                                90.000000
 CELL_TOP| Angle (a,c), beta  [degree]:                                90.000000
 CELL_TOP| Angle (a,b), gamma [degree]:                                90.000000
 CELL_TOP| Numerically orthorhombic:                                         YES

 GENERATE|  Preliminary Number of Bonds generated:                             0
 GENERATE|  Achieved consistency in connectivity generation.

 CELL| Volume [angstrom^3]:                                          4545.422225
 CELL| Vector a [angstrom]:      11.246     0.000     0.000   |a| =    11.246000
 CELL| Vector b [angstrom]:       0.000    11.246     0.000   |b| =    11.246000
 CELL| Vector c [angstrom]:       0.000     0.000    35.940   |c| =    35.940000
 CELL| Angle (b,c), alpha [degree]:                                    90.000000
 CELL| Angle (a,c), beta  [degree]:                                    90.000000
 CELL| Angle (a,b), gamma [degree]:                                    90.000000
 CELL| Numerically orthorhombic:                                             YES

 CELL_REF| Volume [angstrom^3]:                                      4545.422225
 CELL_REF| Vector a [angstrom    11.246     0.000     0.000   |a| =    11.246000
 CELL_REF| Vector b [angstrom     0.000    11.246     0.000   |b| =    11.246000
 CELL_REF| Vector c [angstrom     0.000     0.000    35.940   |c| =    35.940000
 CELL_REF| Angle (b,c), alpha [degree]:                                90.000000
 CELL_REF| Angle (a,c), beta  [degree]:                                90.000000
 CELL_REF| Angle (a,b), gamma [degree]:                                90.000000
 CELL_REF| Numerically orthorhombic:                                         YES

 *******************************************************************************
 *******************************************************************************
 **                                                                           **
 **     #####                         ##              ##                      **
 **    ##   ##            ##          ##              ##                      **
 **   ##     ##                       ##            ######                    **
 **   ##     ##  ##   ##  ##   #####  ##  ##   ####   ##    #####    #####    **
 **   ##     ##  ##   ##  ##  ##      ## ##   ##      ##   ##   ##  ##   ##   **
 **   ##  ## ##  ##   ##  ##  ##      ####     ###    ##   ######   ######    **
 **    ##  ###   ##   ##  ##  ##      ## ##      ##   ##   ##       ##        **
 **     #######   #####   ##   #####  ##  ##  ####    ##    #####   ##        **
 **           ##                                                    ##        **
 **                                                                           **
 **                                                ... make the atoms dance   **
 **                                                                           **
 **            Copyright (C) by CP2K developers group (2000-2021)             **
 **                      J. Chem. Phys. 152, 194103 (2020)                    **
 **                                                                           **
 *******************************************************************************

 DFT| Spin restricted Kohn-Sham (RKS) calculation                            RKS
 DFT| Multiplicity                                                             1
 DFT| Number of spin states                                                    1
 DFT| Charge                                                                   0
 DFT| Self-interaction correction (SIC)                                       NO
 DFT| Cutoffs: density                                              1.000000E-10
 DFT|          gradient                                             1.000000E-10
 DFT|          tau                                                  1.000000E-10
 DFT|          cutoff_smoothing_range                               0.000000E+00
 DFT| XC density smoothing                                                  NONE
 DFT| XC derivatives                                                          PW
 FUNCTIONAL| ROUTINE=NEW
 FUNCTIONAL| PBE:
 FUNCTIONAL| J.P.Perdew, K.Burke, M.Ernzerhof, Phys. Rev. Letter, vol. 77, n 18,
 FUNCTIONAL|  pp. 3865-3868, (1996){spin unpolarized}                           
 vdW POTENTIAL|                                                   Pair Potential
 vdW POTENTIAL|          DFT-D3 (Version 3.1)
 vdW POTENTIAL|          Potential Form: S. Grimme et al, JCP 132: 154104 (2010)
 vdW POTENTIAL|          Zero Damping
 vdW POTENTIAL|          Cutoff Radius [Bohr]:                             20.00
 vdW POTENTIAL|          s6 Scaling Factor:                               1.0000
 vdW POTENTIAL|          sr6 Scaling Factor:                              1.2170
 vdW POTENTIAL|          s8 Scaling Factor:                               0.7220
 vdW POTENTIAL|          Cutoff for CN calculation:                   0.1000E-05

 QS| Method:                                                                 GPW
 QS| Density plane wave grid type                        NON-SPHERICAL FULLSPACE
 QS| Number of grid levels:                                                    4
 QS| Density cutoff [a.u.]:                                                200.0
 QS| Multi grid cutoff [a.u.]: 1) grid level                               200.0
 QS|                           2) grid level                                66.7
 QS|                           3) grid level                                22.2
 QS|                           4) grid level                                 7.4
 QS| Grid level progression factor:                                          3.0
 QS| Relative density cutoff [a.u.]:                                        20.0
 QS| Interaction thresholds: eps_pgf_orb:                                3.2E-07
 QS|                         eps_filter_matrix:                          0.0E+00
 QS|                         eps_core_charge:                            1.0E-15
 QS|                         eps_rho_gspace:                             1.0E-13
 QS|                         eps_rho_rspace:                             1.0E-13
 QS|                         eps_gvg_rspace:                             3.2E-07
 QS|                         eps_ppl:                                    1.0E-02
 QS|                         eps_ppnl:                                   3.2E-09


 ATOMIC KIND INFORMATION

  1. Atomic kind: O                                     Number of atoms:      97

     Orbital Basis Set                                        DZVP-MOLOPT-SR-GTH

       Number of orbital shell sets:                                           1
       Number of orbital shells:                                               5
       Number of primitive Cartesian functions:                                5
       Number of Cartesian basis functions:                                   14
       Number of spherical basis functions:                                   13
       Norm type:                                                              2

       Normalised Cartesian orbitals:

                        Set   Shell   Orbital            Exponent    Coefficient

                          1       1    2s               10.389228       0.396646
                                                         3.849621       0.208811
                                                         1.388401      -0.301641
                                                         0.496955      -0.274061
                                                         0.162492      -0.033677

                          1       2    3s               10.389228       0.303673
                                                         3.849621       0.240943
                                                         1.388401      -0.313066
                                                         0.496955      -0.043055
                                                         0.162492       0.213991

                          1       3    3px              10.389228      -1.530415
                                                         3.849621      -1.371928
                                                         1.388401      -0.761951
                                                         0.496955      -0.253695
                                                         0.162492      -0.035541
                          1       3    3py              10.389228      -1.530415
                                                         3.849621      -1.371928
                                                         1.388401      -0.761951
                                                         0.496955      -0.253695
                                                         0.162492      -0.035541
                          1       3    3pz              10.389228      -1.530415
                                                         3.849621      -1.371928
                                                         1.388401      -0.761951
                                                         0.496955      -0.253695
                                                         0.162492      -0.035541

                          1       4    4px              10.389228      -0.565392
                                                         3.849621      -0.038231
                                                         1.388401      -0.382373
                                                         0.496955       0.179070
                                                         0.162492       0.122714
                          1       4    4py              10.389228      -0.565392
                                                         3.849621      -0.038231
                                                         1.388401      -0.382373
                                                         0.496955       0.179070
                                                         0.162492       0.122714
                          1       4    4pz              10.389228      -0.565392
                                                         3.849621      -0.038231
                                                         1.388401      -0.382373
                                                         0.496955       0.179070
                                                         0.162492       0.122714

                          1       5    4dx2             10.389228       1.867377
                                                         3.849621       0.670994
                                                         1.388401       1.353441
                                                         0.496955       0.273538
                                                         0.162492       0.006620
                          1       5    4dxy             10.389228       3.234392
                                                         3.849621       1.162195
                                                         1.388401       2.344229
                                                         0.496955       0.473781
                                                         0.162492       0.011466
                          1       5    4dxz             10.389228       3.234392
                                                         3.849621       1.162195
                                                         1.388401       2.344229
                                                         0.496955       0.473781
                                                         0.162492       0.011466
                          1       5    4dy2             10.389228       1.867377
                                                         3.849621       0.670994
                                                         1.388401       1.353441
                                                         0.496955       0.273538
                                                         0.162492       0.006620
                          1       5    4dyz             10.389228       3.234392
                                                         3.849621       1.162195
                                                         1.388401       2.344229
                                                         0.496955       0.473781
                                                         0.162492       0.011466
                          1       5    4dz2             10.389228       1.867377
                                                         3.849621       0.670994
                                                         1.388401       1.353441
                                                         0.496955       0.273538
                                                         0.162492       0.006620

       Atomic covalent radius [Angstrom]:                                  0.730

       Atomic van der Waals radius [Angstrom]:                             1.520

     GTH Potential information for                                    GTH-PBE-q6

       Description:                       Goedecker-Teter-Hutter pseudopotential
                                           Goedecker et al., PRB 54, 1703 (1996)
                                          Hartwigsen et al., PRB 58, 3641 (1998)
                                                      Krack, TCA 114, 145 (2005)

       Gaussian exponent of the core charge distribution:               8.360253
       Electronic configuration (s p d ...):                               2   4

       Parameters of the local part of the GTH pseudopotential:

                          rloc        C1          C2          C3          C4
                        0.244554  -16.667215    2.487311

       Parameters of the non-local part of the GTH pseudopotential:

                   l      r(l)      h(i,j,l)

                   0    0.220956   18.337458
                   1    0.211332

  2. Atomic kind: H                                     Number of atoms:     194

     Orbital Basis Set                                        DZVP-MOLOPT-SR-GTH

       Number of orbital shell sets:                                           1
       Number of orbital shells:                                               3
       Number of primitive Cartesian functions:                                5
       Number of Cartesian basis functions:                                    5
       Number of spherical basis functions:                                    5
       Norm type:                                                              2

       Normalised Cartesian orbitals:

                        Set   Shell   Orbital            Exponent    Coefficient

                          1       1    2s               10.068468      -0.133023
                                                         2.680223      -0.177618
                                                         0.791502      -0.258419
                                                         0.239116      -0.107525
                                                         0.082193      -0.014019

                          1       2    3s               10.068468       0.344673
                                                         2.680223       1.819821
                                                         0.791502      -0.999069
                                                         0.239116       0.017430
                                                         0.082193       0.082660

                          1       3    3px              10.068468       0.155326
                                                         2.680223       0.367157
                                                         0.791502       0.311480
                                                         0.239116       0.080105
                                                         0.082193       0.033440
                          1       3    3py              10.068468       0.155326
                                                         2.680223       0.367157
                                                         0.791502       0.311480
                                                         0.239116       0.080105
                                                         0.082193       0.033440
                          1       3    3pz              10.068468       0.155326
                                                         2.680223       0.367157
                                                         0.791502       0.311480
                                                         0.239116       0.080105
                                                         0.082193       0.033440

       Atomic covalent radius [Angstrom]:                                  0.320

       Atomic van der Waals radius [Angstrom]:                             1.090

     GTH Potential information for                                    GTH-PBE-q1

       Description:                       Goedecker-Teter-Hutter pseudopotential
                                           Goedecker et al., PRB 54, 1703 (1996)
                                          Hartwigsen et al., PRB 58, 3641 (1998)
                                                      Krack, TCA 114, 145 (2005)

       Gaussian exponent of the core charge distribution:              12.500000
       Electronic configuration (s p d ...):                                   1

       Parameters of the local part of the GTH pseudopotential:

                          rloc        C1          C2          C3          C4
                        0.200000   -4.178900    0.724463

  3. Atomic kind: Pt                                    Number of atoms:      96

     Orbital Basis Set                      DZVP-A5-Q10-323-MOL-T1-DERIVED_SET-1

       Number of orbital shell sets:                                           1
       Number of orbital shells:                                               6
       Number of primitive Cartesian functions:                                5
       Number of Cartesian basis functions:                                   23
       Number of spherical basis functions:                                   20
       Norm type:                                                              2

       Normalised Cartesian orbitals:

                        Set   Shell   Orbital            Exponent    Coefficient

                          1       1    2s                2.521825       0.177473
                                                         1.453920      -0.063399
                                                         0.614053      -0.407089
                                                         0.232656       0.262254
                                                         0.074788       0.047371

                          1       2    3s                2.521825      -0.049056
                                                         1.453920       0.044904
                                                         0.614053      -0.009756
                                                         0.232656      -0.144709
                                                         0.074788       0.144085

                          1       3    3px               2.521825      -0.317572
                                                         1.453920       0.534826
                                                         0.614053      -0.489458
                                                         0.232656       0.245631
                                                         0.074788       0.018221
                          1       3    3py               2.521825      -0.317572
                                                         1.453920       0.534826
                                                         0.614053      -0.489458
                                                         0.232656       0.245631
                                                         0.074788       0.018221
                          1       3    3pz               2.521825      -0.317572
                                                         1.453920       0.534826
                                                         0.614053      -0.489458
                                                         0.232656       0.245631
                                                         0.074788       0.018221

                          1       4    4dx2              2.521825       3.008522
                                                         1.453920      -1.224251
                                                         0.614053       0.225691
                                                         0.232656       0.125144
                                                         0.074788      -0.015348
                          1       4    4dxy              2.521825       5.210912
                                                         1.453920      -2.120465
                                                         0.614053       0.390909
                                                         0.232656       0.216756
                                                         0.074788      -0.026584
                          1       4    4dxz              2.521825       5.210912
                                                         1.453920      -2.120465
                                                         0.614053       0.390909
                                                         0.232656       0.216756
                                                         0.074788      -0.026584
                          1       4    4dy2              2.521825       3.008522
                                                         1.453920      -1.224251
                                                         0.614053       0.225691
                                                         0.232656       0.125144
                                                         0.074788      -0.015348
                          1       4    4dyz              2.521825       5.210912
                                                         1.453920      -2.120465
                                                         0.614053       0.390909
                                                         0.232656       0.216756
                                                         0.074788      -0.026584
                          1       4    4dz2              2.521825       3.008522
                                                         1.453920      -1.224251
                                                         0.614053       0.225691
                                                         0.232656       0.125144
                                                         0.074788      -0.015348

                          1       5    5dx2              2.521825       0.698026
                                                         1.453920      -1.511486
                                                         0.614053      -0.335394
                                                         0.232656      -0.025564
                                                         0.074788      -0.002699
                          1       5    5dxy              2.521825       1.209017
                                                         1.453920      -2.617970
                                                         0.614053      -0.580920
                                                         0.232656      -0.044277
                                                         0.074788      -0.004674
                          1       5    5dxz              2.521825       1.209017
                                                         1.453920      -2.617970
                                                         0.614053      -0.580920
                                                         0.232656      -0.044277
                                                         0.074788      -0.004674
                          1       5    5dy2              2.521825       0.698026
                                                         1.453920      -1.511486
                                                         0.614053      -0.335394
                                                         0.232656      -0.025564
                                                         0.074788      -0.002699
                          1       5    5dyz              2.521825       1.209017
                                                         1.453920      -2.617970
                                                         0.614053      -0.580920
                                                         0.232656      -0.044277
                                                         0.074788      -0.004674
                          1       5    5dz2              2.521825       0.698026
                                                         1.453920      -1.511486
                                                         0.614053      -0.335394
                                                         0.232656      -0.025564
                                                         0.074788      -0.002699

                          1       6    6dx2              2.521825       0.831079
                                                         1.453920      -0.709226
                                                         0.614053      -0.137351
                                                         0.232656       0.068642
                                                         0.074788       0.011745
                          1       6    6dxy              2.521825       1.439472
                                                         1.453920      -1.228415
                                                         0.614053      -0.237899
                                                         0.232656       0.118891
                                                         0.074788       0.020343
                          1       6    6dxz              2.521825       1.439472
                                                         1.453920      -1.228415
                                                         0.614053      -0.237899
                                                         0.232656       0.118891
                                                         0.074788       0.020343
                          1       6    6dy2              2.521825       0.831079
                                                         1.453920      -0.709226
                                                         0.614053      -0.137351
                                                         0.232656       0.068642
                                                         0.074788       0.011745
                          1       6    6dyz              2.521825       1.439472
                                                         1.453920      -1.228415
                                                         0.614053      -0.237899
                                                         0.232656       0.118891
                                                         0.074788       0.020343
                          1       6    6dz2              2.521825       0.831079
                                                         1.453920      -0.709226
                                                         0.614053      -0.137351
                                                         0.232656       0.068642
                                                         0.074788       0.011745

       Atomic covalent radius [Angstrom]:                                  1.300

       Atomic van der Waals radius [Angstrom]:                             1.750

     GTH Potential information for                                   GTH-PBE-q10

       Description:                       Goedecker-Teter-Hutter pseudopotential
                                           Goedecker et al., PRB 54, 1703 (1996)
                                          Hartwigsen et al., PRB 58, 3641 (1998)
                                                      Krack, TCA 114, 145 (2005)

       Gaussian exponent of the core charge distribution:               1.317676
       Electronic configuration (s p d ...):                           1   0   9

       Parameters of the local part of the GTH pseudopotential:

                          rloc        C1          C2          C3          C4
                        0.616000   11.313635

       Parameters of the non-local part of the GTH pseudopotential:

                   l      r(l)      h(i,j,l)

                   0    0.550904    4.733491   -1.784594
                                   -1.784594    2.303901
                   1    0.674138    2.534798   -1.778066
                                   -1.778066    2.103836
                   2    0.457392   -7.264011    2.558665
                                    2.558665   -2.901253


 MOLECULE KIND INFORMATION


 All atoms are their own molecule, skipping detailed information


 TOTAL NUMBERS AND MAXIMUM NUMBERS

  Total number of            - Atomic kinds:                                   3
                             - Atoms:                                        387
                             - Shell sets:                                   387
                             - Shells:                                      1643
                             - Primitive Cartesian functions:               1935
                             - Cartesian basis functions:                   4536
                             - Spherical basis functions:                   4151

  Maximum angular momentum of- Orbital basis functions:                        2
                             - Local part of the GTH pseudopotential:          2
                             - Non-local part of the GTH pseudopotential:      4


 MODULE QUICKSTEP:  ATOMIC COORDINATES IN angstrom

  Atom  Kind  Element       X           Y           Z          Z(eff)       Mass

       1     1 O    8    8.183360    7.445680    8.426230      6.0000      15.9994
       2     2 H    1    8.568630    6.523470    8.305680      1.0000       1.0079
       3     2 H    1    9.018540    8.039480    8.256440      1.0000       1.0079
       4     1 O    8    5.990530    8.365550    7.382350      6.0000      15.9994
       5     2 H    1    5.103890    7.940920    7.741990      1.0000       1.0079
       6     2 H    1    6.781540    7.821650    7.744460      1.0000       1.0079
       7     1 O    8    1.735630    2.507820   18.634900      6.0000      15.9994
       8     2 H    1    1.867650    2.517090   17.656100      1.0000       1.0079
       9     2 H    1    2.645870    2.693980   18.977900      1.0000       1.0079
      10     1 O    8    7.252880   10.599600   11.529100      6.0000      15.9994
      11     2 H    1    7.590200    0.238169   11.243500      1.0000       1.0079
      12     2 H    1    7.466090   10.531800   12.490500      1.0000       1.0079
      13     1 O    8    9.869140    3.641980   28.024500      6.0000      15.9994
      14     2 H    1   10.826400    3.792750   27.884500      1.0000       1.0079
      15     2 H    1    9.359870    4.062960   27.301800      1.0000       1.0079
      16     1 O    8   10.431000    5.330910   24.640400      6.0000      15.9994
      17     2 H    1    9.723080    5.658550   25.233900      1.0000       1.0079
      18     2 H    1   11.094400    6.052370   24.611600      1.0000       1.0079
      19     1 O    8    0.441971    8.554790   16.757900      6.0000      15.9994
      20     2 H    1   11.177500    8.970560   17.491700      1.0000       1.0079
      21     2 H    1    0.598779    9.394360   16.233600      1.0000       1.0079
      22     1 O    8    6.217670    0.662050   13.685800      6.0000      15.9994
      23     2 H    1    5.506360    0.509663   13.020600      1.0000       1.0079
      24     2 H    1    6.355890   11.026400   14.048000      1.0000       1.0079
      25     1 O    8   10.944000    3.912420   22.218700      6.0000      15.9994
      26     2 H    1   10.646500    4.353300   23.108500      1.0000       1.0079
      27     2 H    1   11.011200    4.701240   21.651600      1.0000       1.0079
      28     1 O    8    6.141260    4.014510   27.668200      6.0000      15.9994
      29     2 H    1    5.616640    4.701140   28.143200      1.0000       1.0079
      30     2 H    1    6.672220    3.747830   28.474600      1.0000       1.0079
      31     1 O    8    3.316180    9.544250   11.809900      6.0000      15.9994
      32     2 H    1    2.508500    9.045630   11.641300      1.0000       1.0079
      33     2 H    1    4.067970    9.112340   11.327600      1.0000       1.0079
      34     1 O    8    4.404600    2.381990   23.778500      6.0000      15.9994
      35     2 H    1    4.643510    1.485300   23.993000      1.0000       1.0079
      36     2 H    1    3.532340    2.326200   23.206300      1.0000       1.0079
      37     1 O    8    0.479881    6.200210   27.650600      6.0000      15.9994
      38     2 H    1   11.244400    6.386440   28.483500      1.0000       1.0079
      39     2 H    1    1.408020    6.352710   27.945500      1.0000       1.0079
      40     1 O    8    0.981311    0.092533   16.231400      6.0000      15.9994
      41     2 H    1    1.609320   10.971600   16.922200      1.0000       1.0079
      42     2 H    1    1.510690    0.299349   15.414300      1.0000       1.0079
      43     1 O    8    0.559995    6.172770    9.432010      6.0000      15.9994
      44     2 H    1    1.362630    5.702300    9.762970      1.0000       1.0079
      45     2 H    1    0.323252    6.766130   10.214500      1.0000       1.0079
      46     1 O    8    6.883180    3.688270   23.790000      6.0000      15.9994
      47     2 H    1    7.459730    3.675460   23.027900      1.0000       1.0079
      48     2 H    1    5.927270    3.441410   23.567200      1.0000       1.0079
      49     1 O    8   10.572500    8.293520   26.498500      6.0000      15.9994
      50     2 H    1   10.739100    9.269160   26.835200      1.0000       1.0079
      51     2 H    1   11.082800    7.606680   27.048500      1.0000       1.0079
      52     1 O    8    4.177480    0.511009   27.858400      6.0000      15.9994
      53     2 H    1    5.145440    0.301685   27.792200      1.0000       1.0079
      54     2 H    1    4.050460    1.183760   27.102700      1.0000       1.0079
      55     1 O    8    1.911950    9.994390   28.302900      6.0000      15.9994
      56     2 H    1    1.096460   10.273000   27.747900      1.0000       1.0079
      57     2 H    1    2.601240   10.704400   28.482300      1.0000       1.0079
      58     1 O    8    5.677860    8.553320   10.944100      6.0000      15.9994
      59     2 H    1    6.282740    7.814570   11.149600      1.0000       1.0079
      60     2 H    1    6.265650    9.380170   11.035500      1.0000       1.0079
      61     1 O    8    3.777440    7.373210    8.940050      6.0000      15.9994
      62     2 H    1    4.491460    7.577680    9.567110      1.0000       1.0079
      63     2 H    1    3.537730    6.388610    9.112970      1.0000       1.0079
      64     1 O    8    1.374940    0.421686   20.544800      6.0000      15.9994
      65     2 H    1    1.859460   10.859400   20.260100      1.0000       1.0079
      66     2 H    1    1.386150    1.044420   19.779400      1.0000       1.0079
      67     1 O    8   11.201600    6.221700   20.430200      6.0000      15.9994
      68     2 H    1   10.405200    6.753190   20.507900      1.0000       1.0079
      69     2 H    1    0.026091    5.734680   19.517300      1.0000       1.0079
      70     1 O    8   10.039000    9.226270    8.331460      6.0000      15.9994
      71     2 H    1   10.982100    9.195230    8.475420      1.0000       1.0079
      72     2 H    1    9.874180    9.767920    7.473460      1.0000       1.0079
      73     1 O    8    8.584800   10.377900   14.171800      6.0000      15.9994
      74     2 H    1    8.681210   10.976500   14.952300      1.0000       1.0079
      75     2 H    1    8.976820    9.510310   14.559900      1.0000       1.0079
      76     1 O    8    1.199200   10.388300   23.349700      6.0000      15.9994
      77     2 H    1    1.306790   11.102600   22.675600      1.0000       1.0079
      78     2 H    1    2.084900   10.426400   23.798600      1.0000       1.0079
      79     1 O    8    0.460400    4.822280   18.434400      6.0000      15.9994
      80     2 H    1    0.979039    4.069110   18.864400      1.0000       1.0079
      81     2 H    1    0.926669    5.032750   17.532700      1.0000       1.0079
      82     1 O    8    0.277878    6.370650   14.208400      6.0000      15.9994
      83     2 H    1    0.911377    6.295080   14.965600      1.0000       1.0079
      84     2 H    1   10.723700    6.843920   14.609400      1.0000       1.0079
      85     1 O    8    1.349160    1.745240    8.347040      6.0000      15.9994
      86     2 H    1    0.591474    1.287560    8.664560      1.0000       1.0079
      87     2 H    1    1.116200    2.481140    7.762960      1.0000       1.0079
      88     1 O    8    1.986350    5.407870   16.349600      6.0000      15.9994
      89     2 H    1    2.223870    4.404020   16.111600      1.0000       1.0079
      90     2 H    1    2.811620    5.727780   16.867100      1.0000       1.0079
      91     1 O    8    4.457050    5.187550   13.758500      6.0000      15.9994
      92     2 H    1    4.904890    5.436250   14.625000      1.0000       1.0079
      93     2 H    1    3.549420    5.019210   14.068100      1.0000       1.0079
      94     1 O    8    8.765220    1.383350   19.316800      6.0000      15.9994
      95     2 H    1    9.082900    0.534323   19.709200      1.0000       1.0079
      96     2 H    1    7.862730    1.522780   19.687500      1.0000       1.0079
      97     1 O    8    9.070220    8.091580   11.285800      6.0000      15.9994
      98     2 H    1    8.658750    8.935980   11.536700      1.0000       1.0079
      99     2 H    1    8.785980    7.871070   10.368500      1.0000       1.0079
     100     1 O    8    5.822420   11.034900    7.519340      6.0000      15.9994
     101     2 H    1    4.812970   11.126700    7.756590      1.0000       1.0079
     102     2 H    1    5.935030    9.983390    7.425200      1.0000       1.0079
     103     1 O    8    3.920620    2.168120   12.571100      6.0000      15.9994
     104     2 H    1    3.958400    1.822310   11.605800      1.0000       1.0079
     105     2 H    1    4.123170    3.110590   12.576500      1.0000       1.0079
     106     1 O    8    2.498030    7.184350   21.634000      6.0000      15.9994
     107     2 H    1    1.685000    7.080490   21.079600      1.0000       1.0079
     108     2 H    1    2.270230    7.292310   22.565100      1.0000       1.0079
     109     1 O    8    5.106840    2.379070   15.669300      6.0000      15.9994
     110     2 H    1    5.311670    1.736310   14.891700      1.0000       1.0079
     111     2 H    1    5.840290    3.061380   15.830300      1.0000       1.0079
     112     1 O    8    6.891080    9.868910   17.509000      6.0000      15.9994
     113     2 H    1    6.116460   10.378800   17.267700      1.0000       1.0079
     114     2 H    1    7.186010    9.714020   16.575600      1.0000       1.0079
     115     1 O    8    3.795150    3.197410   20.178300      6.0000      15.9994
     116     2 H    1    3.187510    3.057030   20.984100      1.0000       1.0079
     117     2 H    1    4.051170    4.183760   20.143600      1.0000       1.0079
     118     1 O    8    5.253880    0.821987   17.904500      6.0000      15.9994
     119     2 H    1    5.240240    1.533020   17.257200      1.0000       1.0079
     120     2 H    1    5.604980    1.141680   18.760200      1.0000       1.0079
     121     1 O    8    5.463630    4.727940   10.706800      6.0000      15.9994
     122     2 H    1    6.162070    4.450900   10.003900      1.0000       1.0079
     123     2 H    1    5.994190    5.334980   11.272600      1.0000       1.0079
     124     1 O    8    8.428560    3.556870   13.039100      6.0000      15.9994
     125     2 H    1    7.936450    2.721800   12.792900      1.0000       1.0079
     126     2 H    1    9.268410    3.204390   13.381800      1.0000       1.0079
     127     1 O    8    6.894140    6.945860   16.071700      6.0000      15.9994
     128     2 H    1    6.061360    7.045480   16.522800      1.0000       1.0079
     129     2 H    1    6.901780    5.934590   15.912900      1.0000       1.0079
     130     1 O    8    1.426100    1.765810   13.437900      6.0000      15.9994
     131     2 H    1    2.269950    2.018940   12.934900      1.0000       1.0079
     132     2 H    1    0.801751    2.584630   13.475600      1.0000       1.0079
     133     1 O    8    1.618130    8.743340    8.183530      6.0000      15.9994
     134     2 H    1    2.464490    8.659080    8.611700      1.0000       1.0079
     135     2 H    1    1.547030    7.832720    7.810510      1.0000       1.0079
     136     1 O    8    7.336720    8.726500   22.422300      6.0000      15.9994
     137     2 H    1    7.001530    8.632890   23.370900      1.0000       1.0079
     138     2 H    1    7.078560    7.939720   21.920300      1.0000       1.0079
     139     1 O    8    9.869950    0.347454   24.802200      6.0000      15.9994
     140     2 H    1    9.821600   10.862900   24.124900      1.0000       1.0079
     141     2 H    1   10.560600    1.007640   24.555800      1.0000       1.0079
     142     1 O    8    9.719480    9.781050   22.788300      6.0000      15.9994
     143     2 H    1   10.386400    9.048550   22.887900      1.0000       1.0079
     144     2 H    1    8.869940    9.281330   22.890900      1.0000       1.0079
     145     1 O    8    3.527350    8.614190   15.393100      6.0000      15.9994
     146     2 H    1    4.294000    8.763790   14.746900      1.0000       1.0079
     147     2 H    1    3.036980    7.888570   15.017800      1.0000       1.0079
     148     1 O    8    9.802940    1.174110    7.976080      6.0000      15.9994
     149     2 H    1    9.980200    1.322940    7.014290      1.0000       1.0079
     150     2 H    1    8.804210    1.146790    8.090380      1.0000       1.0079
     151     1 O    8    6.040800    8.421370   24.479300      6.0000      15.9994
     152     2 H    1    5.576500    7.514660   24.447800      1.0000       1.0079
     153     2 H    1    6.435280    8.545060   25.360900      1.0000       1.0079
     154     1 O    8   10.166900    0.858744   12.651800      6.0000      15.9994
     155     2 H    1   11.063700    1.023950   13.010000      1.0000       1.0079
     156     2 H    1    9.815300    0.076615   13.105700      1.0000       1.0079
     157     1 O    8   10.867100    3.680800   14.040900      6.0000      15.9994
     158     2 H    1   11.025600    4.637000   13.879000      1.0000       1.0079
     159     2 H    1   10.620700    3.655020   14.981200      1.0000       1.0079
     160     1 O    8    5.020370    5.901730   23.881100      6.0000      15.9994
     161     2 H    1    5.859560    5.430690   23.757800      1.0000       1.0079
     162     2 H    1    4.445980    5.330900   24.475400      1.0000       1.0079
     163     1 O    8    9.518770    7.776160   15.297300      6.0000      15.9994
     164     2 H    1    8.684120    7.319090   15.419200      1.0000       1.0079
     165     2 H    1   10.142200    8.017850   16.055000      1.0000       1.0079
     166     1 O    8    7.593020    3.635910    9.018670      6.0000      15.9994
     167     2 H    1    8.453150    4.003200    8.627660      1.0000       1.0079
     168     2 H    1    7.195020    3.222400    8.218490      1.0000       1.0079
     169     1 O    8    1.219540    7.565010   24.439800      6.0000      15.9994
     170     2 H    1    0.559532    7.990340   25.026500      1.0000       1.0079
     171     2 H    1    1.664380    6.826760   24.915900      1.0000       1.0079
     172     1 O    8    6.920580    0.268114   27.454200      6.0000      15.9994
     173     2 H    1    7.025410   10.575700   27.376900      1.0000       1.0079
     174     2 H    1    6.905780    0.749760   26.577400      1.0000       1.0079
     175     1 O    8    8.271350    1.621380   10.616600      6.0000      15.9994
     176     2 H    1    7.955090    2.386760    9.998010      1.0000       1.0079
     177     2 H    1    9.149600    1.927090   10.935300      1.0000       1.0079
     178     1 O    8    9.668780    5.029720    8.341350      6.0000      15.9994
     179     2 H    1   10.591300    5.378920    8.771980      1.0000       1.0079
     180     2 H    1    9.749680    4.776080    7.375020      1.0000       1.0079
     181     1 O    8    2.191050    2.273390   22.160500      6.0000      15.9994
     182     2 H    1    1.395820    2.859860   22.180600      1.0000       1.0079
     183     2 H    1    1.874300    1.517170   21.562800      1.0000       1.0079
     184     1 O    8    9.268710    1.133530   28.080200      6.0000      15.9994
     185     2 H    1    9.372160    2.062490   27.687300      1.0000       1.0079
     186     2 H    1    8.332470    0.930356   27.876700      1.0000       1.0079
     187     1 O    8    8.093060    4.024700   21.105500      6.0000      15.9994
     188     2 H    1    7.795360    3.352250   20.491500      1.0000       1.0079
     189     2 H    1    9.055330    3.891920   21.323700      1.0000       1.0079
     190     1 O    8    8.702210    7.892790   18.704500      6.0000      15.9994
     191     2 H    1    7.907300    8.491700   18.474900      1.0000       1.0079
     192     2 H    1    9.426320    8.538500   18.889200      1.0000       1.0079
     193     1 O    8    6.302460    1.858300   20.487400      6.0000      15.9994
     194     2 H    1    5.478870    2.347350   20.412600      1.0000       1.0079
     195     2 H    1    6.145220    1.139940   21.163700      1.0000       1.0079
     196     1 O    8    0.124537    2.356470   25.449400      6.0000      15.9994
     197     2 H    1    0.534649    1.849530   26.151100      1.0000       1.0079
     198     2 H    1    0.094833    3.353680   25.586800      1.0000       1.0079
     199     1 O    8    6.220910   11.187200   22.348100      6.0000      15.9994
     200     2 H    1    6.583360    0.296751   23.163000      1.0000       1.0079
     201     2 H    1    6.646020   10.294900   22.179700      1.0000       1.0079
     202     1 O    8    4.301180    6.552850   17.362300      6.0000      15.9994
     203     2 H    1    3.992530    7.477670   17.308300      1.0000       1.0079
     204     2 H    1    4.480050    6.298900   18.323100      1.0000       1.0079
     205     1 O    8    7.685810    8.909100   27.352500      6.0000      15.9994
     206     2 H    1    8.616250    8.672960   27.070400      1.0000       1.0079
     207     2 H    1    7.479940    8.132500   27.937200      1.0000       1.0079
     208     1 O    8    3.509760    8.232700   27.043500      6.0000      15.9994
     209     2 H    1    2.899800    8.829540   27.523800      1.0000       1.0079
     210     2 H    1    3.527380    8.491080   26.078000      1.0000       1.0079
     211     1 O    8    0.316316   10.878800   10.615100      6.0000      15.9994
     212     2 H    1   10.798500   10.745300   10.026200      1.0000       1.0079
     213     2 H    1   11.174400    0.078841   11.407700      1.0000       1.0079
     214     1 O    8    0.906283    8.004210   11.742700      6.0000      15.9994
     215     2 H    1    0.509180    8.883510   11.771800      1.0000       1.0079
     216     2 H    1    0.632913    7.629360   12.578800      1.0000       1.0079
     217     1 O    8    5.904150    8.632330   14.118600      6.0000      15.9994
     218     2 H    1    6.256650    8.115530   14.884200      1.0000       1.0079
     219     2 H    1    5.900790    8.002490   13.361000      1.0000       1.0079
     220     1 O    8    2.458670    2.863810   15.866700      6.0000      15.9994
     221     2 H    1    2.186400    2.449570   15.002300      1.0000       1.0079
     222     2 H    1    3.476360    2.843330   15.775900      1.0000       1.0079
     223     1 O    8   11.173900   10.920600   26.951200      6.0000      15.9994
     224     2 H    1   10.723400   11.210700   26.154500      1.0000       1.0079
     225     2 H    1   10.621300    0.015076   27.643200      1.0000       1.0079
     226     1 O    8    3.056890    5.805350   27.866900      6.0000      15.9994
     227     2 H    1    3.257660    5.625000   28.808700      1.0000       1.0079
     228     2 H    1    3.525650    6.663050   27.576900      1.0000       1.0079
     229     1 O    8    3.463440    0.747966   10.321300      6.0000      15.9994
     230     2 H    1    3.372450   11.181200   10.837900      1.0000       1.0079
     231     2 H    1    2.570560    1.050860   10.274700      1.0000       1.0079
     232     1 O    8    5.446440    1.569470   25.947100      6.0000      15.9994
     233     2 H    1    5.425710    1.642210   24.971500      1.0000       1.0079
     234     2 H    1    6.218860    2.055930   26.316400      1.0000       1.0079
     235     1 O    8    8.210240    4.457210   25.991500      6.0000      15.9994
     236     2 H    1    7.836240    3.990800   25.235100      1.0000       1.0079
     237     2 H    1    7.403960    4.389000   26.605100      1.0000       1.0079
     238     1 O    8    3.146900    9.767880   20.327000      6.0000      15.9994
     239     2 H    1    3.312520    9.550630   19.404500      1.0000       1.0079
     240     2 H    1    3.097840    8.865460   20.799800      1.0000       1.0079
     241     1 O    8    3.230410    4.936370    9.448600      6.0000      15.9994
     242     2 H    1    3.424910    4.250100    8.753980      1.0000       1.0079
     243     2 H    1    4.016390    4.883770   10.017700      1.0000       1.0079
     244     1 O    8    2.867070    5.027420   25.274200      6.0000      15.9994
     245     2 H    1    2.418840    4.208400   25.090100      1.0000       1.0079
     246     2 H    1    2.884850    5.066460   26.266500      1.0000       1.0079
     247     1 O    8    3.807060   10.792500   24.088100      6.0000      15.9994
     248     2 H    1    4.144850   10.470300   24.944700      1.0000       1.0079
     249     2 H    1    4.291770   10.309900   23.366200      1.0000       1.0079
     250     1 O    8    9.509620    0.974789   16.375600      6.0000      15.9994
     251     2 H    1    9.077140    0.669014   17.239400      1.0000       1.0079
     252     2 H    1   10.486600    0.630209   16.397600      1.0000       1.0079
     253     1 O    8    7.322780    6.485290   12.064900      6.0000      15.9994
     254     2 H    1    7.558860    5.597070   12.420300      1.0000       1.0079
     255     2 H    1    8.176930    6.979610   11.799900      1.0000       1.0079
     256     1 O    8    1.496860    2.492650   27.930300      6.0000      15.9994
     257     2 H    1    2.403750    2.744460   27.504600      1.0000       1.0079
     258     2 H    1    1.621670    2.694740   28.896100      1.0000       1.0079
     259     1 O    8    9.833450    3.697750   16.686800      6.0000      15.9994
     260     2 H    1    9.581310    2.781660   16.735000      1.0000       1.0079
     261     2 H    1   10.252400    4.035810   17.482400      1.0000       1.0079
     262     1 O    8    4.899770    2.943110    8.106860      6.0000      15.9994
     263     2 H    1    4.567840    2.715420    7.248830      1.0000       1.0079
     264     2 H    1    4.954840    2.134100    8.683930      1.0000       1.0079
     265     1 O    8    7.434970    4.238560   15.442700      6.0000      15.9994
     266     2 H    1    7.748330    4.011690   14.540500      1.0000       1.0079
     267     2 H    1    8.325870    4.071390   15.983000      1.0000       1.0079
     268     1 O    8    3.007960   11.056400    7.462440      6.0000      15.9994
     269     2 H    1    2.500070    0.626618    7.793240      1.0000       1.0079
     270     2 H    1    2.324500   10.366200    7.622970      1.0000       1.0079
     271     1 O    8    9.893630    9.892820   19.934500      6.0000      15.9994
     272     2 H    1   10.707500   10.238100   20.336900      1.0000       1.0079
     273     2 H    1    9.500440    9.580900   20.783400      1.0000       1.0079
     274     1 O    8    4.844340    6.009130   19.953400      6.0000      15.9994
     275     2 H    1    4.242760    6.482040   20.589000      1.0000       1.0079
     276     2 H    1    5.745660    6.302790   20.149800      1.0000       1.0079
     277     1 O    8    3.237000   10.337300   17.678100      6.0000      15.9994
     278     2 H    1    3.408460    9.888910   16.843700      1.0000       1.0079
     279     2 H    1    3.962890   10.958300   17.902800      1.0000       1.0079
     280     1 O    8    7.373700    1.216220   25.086600      6.0000      15.9994
     281     2 H    1    7.238890    2.193160   24.849300      1.0000       1.0079
     282     2 H    1    8.356880    1.081670   25.050100      1.0000       1.0079
     283     1 O    8    7.149260    6.731310   20.748900      6.0000      15.9994
     284     2 H    1    7.525050    5.855170   20.941700      1.0000       1.0079
     285     2 H    1    7.841670    7.189850   20.184000      1.0000       1.0079
     286     1 O    8    8.521810    5.898100   28.509000      6.0000      15.9994
     287     2 H    1    8.387000    6.875050   28.271800      1.0000       1.0079
     288     2 H    1    9.504990    5.763560   28.472600      1.0000       1.0079
     289     1 O    8    3.542910    6.157190    7.617960      6.0000      15.9994
     290     2 H    1    3.918690    5.281050    7.810710      1.0000       1.0079
     291     2 H    1    4.235310    6.615740    7.053030      1.0000       1.0079
     292     3 Pt  78    0.085365   11.226500    5.087480     10.0000     195.0840
     293     3 Pt  78    2.887410    0.073801    5.091280     10.0000     195.0840
     294     3 Pt  78    5.710130    0.050102    5.141250     10.0000     195.0840
     295     3 Pt  78    8.545100    0.201211    5.205700     10.0000     195.0840
     296     3 Pt  78   11.117100    2.823240    5.204260     10.0000     195.0840
     297     3 Pt  78    2.682510    2.870110    5.136700     10.0000     195.0840
     298     3 Pt  78    5.637300    2.961250    5.072680     10.0000     195.0840
     299     3 Pt  78    8.434290    2.936140    5.037170     10.0000     195.0840
     300     3 Pt  78   11.025700    5.640120    5.104140     10.0000     195.0840
     301     3 Pt  78    2.780000    5.635590    5.077730     10.0000     195.0840
     302     3 Pt  78    5.542790    5.708510    5.195570     10.0000     195.0840
     303     3 Pt  78    8.342690    5.730310    5.071180     10.0000     195.0840
     304     3 Pt  78   11.187500    8.419820    5.157700     10.0000     195.0840
     305     3 Pt  78    2.809950    8.420570    5.163160     10.0000     195.0840
     306     3 Pt  78    5.571480    8.430410    5.004540     10.0000     195.0840
     307     3 Pt  78    8.324970    8.556340    5.089430     10.0000     195.0840
     308     3 Pt  78    1.405600    1.405600    3.056410     10.0000     195.0840
     309     3 Pt  78    4.217110    1.405600    3.056410     10.0000     195.0840
     310     3 Pt  78    7.028570    1.405600    3.056420     10.0000     195.0840
     311     3 Pt  78    9.840070    1.405600    3.056400     10.0000     195.0840
     312     3 Pt  78    1.405600    4.217110    3.056410     10.0000     195.0840
     313     3 Pt  78    4.217110    4.217110    3.056420     10.0000     195.0840
     314     3 Pt  78    7.028570    4.217100    3.056430     10.0000     195.0840
     315     3 Pt  78    9.840070    4.217100    3.056410     10.0000     195.0840
     316     3 Pt  78    1.405600    7.028570    3.056420     10.0000     195.0840
     317     3 Pt  78    4.217100    7.028570    3.056430     10.0000     195.0840
     318     3 Pt  78    7.028560    7.028560    3.056430     10.0000     195.0840
     319     3 Pt  78    9.840070    7.028570    3.056410     10.0000     195.0840
     320     3 Pt  78    1.405600    9.840070    3.056400     10.0000     195.0840
     321     3 Pt  78    4.217100    9.840070    3.056410     10.0000     195.0840
     322     3 Pt  78    7.028570    9.840070    3.056410     10.0000     195.0840
     323     3 Pt  78    9.840070    9.840070    3.056400     10.0000     195.0840
     324     3 Pt  78   11.245900   11.245900    1.025250     10.0000     195.0840
     325     3 Pt  78    2.811380   11.245900    1.025260     10.0000     195.0840
     326     3 Pt  78    5.622860   11.245900    1.025250     10.0000     195.0840
     327     3 Pt  78    8.434330   11.245900    1.025260     10.0000     195.0840
     328     3 Pt  78   11.245900    2.811380    1.025260     10.0000     195.0840
     329     3 Pt  78    2.811380    2.811380    1.025270     10.0000     195.0840
     330     3 Pt  78    5.622860    2.811380    1.025270     10.0000     195.0840
     331     3 Pt  78    8.434330    2.811380    1.025270     10.0000     195.0840
     332     3 Pt  78   11.245900    5.622860    1.025250     10.0000     195.0840
     333     3 Pt  78    2.811380    5.622860    1.025270     10.0000     195.0840
     334     3 Pt  78    5.622860    5.622860    1.025260     10.0000     195.0840
     335     3 Pt  78    8.434330    5.622860    1.025270     10.0000     195.0840
     336     3 Pt  78   11.245900    8.434330    1.025260     10.0000     195.0840
     337     3 Pt  78    2.811380    8.434330    1.025270     10.0000     195.0840
     338     3 Pt  78    5.622860    8.434330    1.025270     10.0000     195.0840
     339     3 Pt  78    8.434330    8.434330    1.025270     10.0000     195.0840
     340     3 Pt  78    1.405660    1.405660   34.914700     10.0000     195.0840
     341     3 Pt  78    4.217160    1.405660   34.914700     10.0000     195.0840
     342     3 Pt  78    7.028630    1.405660   34.914700     10.0000     195.0840
     343     3 Pt  78    9.840130    1.405660   34.914700     10.0000     195.0840
     344     3 Pt  78    1.405660    4.217160   34.914700     10.0000     195.0840
     345     3 Pt  78    4.217160    4.217160   34.914700     10.0000     195.0840
     346     3 Pt  78    7.028630    4.217160   34.914700     10.0000     195.0840
     347     3 Pt  78    9.840130    4.217160   34.914700     10.0000     195.0840
     348     3 Pt  78    1.405660    7.028630   34.914700     10.0000     195.0840
     349     3 Pt  78    4.217160    7.028630   34.914700     10.0000     195.0840
     350     3 Pt  78    7.028630    7.028630   34.914700     10.0000     195.0840
     351     3 Pt  78    9.840130    7.028630   34.914700     10.0000     195.0840
     352     3 Pt  78    1.405660    9.840130   34.914700     10.0000     195.0840
     353     3 Pt  78    4.217160    9.840130   34.914700     10.0000     195.0840
     354     3 Pt  78    7.028630    9.840130   34.914700     10.0000     195.0840
     355     3 Pt  78    9.840130    9.840130   34.914800     10.0000     195.0840
     356     3 Pt  78   11.245900   11.245900   32.883600     10.0000     195.0840
     357     3 Pt  78    2.811450   11.245900   32.883600     10.0000     195.0840
     358     3 Pt  78    5.622910   11.245900   32.883600     10.0000     195.0840
     359     3 Pt  78    8.434380   11.245900   32.883600     10.0000     195.0840
     360     3 Pt  78   11.245900    2.811450   32.883600     10.0000     195.0840
     361     3 Pt  78    2.811450    2.811450   32.883600     10.0000     195.0840
     362     3 Pt  78    5.622910    2.811450   32.883600     10.0000     195.0840
     363     3 Pt  78    8.434380    2.811450   32.883600     10.0000     195.0840
     364     3 Pt  78   11.245900    5.622910   32.883600     10.0000     195.0840
     365     3 Pt  78    2.811450    5.622910   32.883600     10.0000     195.0840
     366     3 Pt  78    5.622910    5.622910   32.883600     10.0000     195.0840
     367     3 Pt  78    8.434380    5.622910   32.883600     10.0000     195.0840
     368     3 Pt  78   11.245900    8.434380   32.883600     10.0000     195.0840
     369     3 Pt  78    2.811450    8.434380   32.883600     10.0000     195.0840
     370     3 Pt  78    5.622910    8.434380   32.883600     10.0000     195.0840
     371     3 Pt  78    8.434380    8.434380   32.883600     10.0000     195.0840
     372     3 Pt  78    1.440930    1.464970   30.794800     10.0000     195.0840
     373     3 Pt  78    4.341280    1.379190   30.788300     10.0000     195.0840
     374     3 Pt  78    7.036720    1.174070   30.786600     10.0000     195.0840
     375     3 Pt  78    9.960220    1.182910   30.745200     10.0000     195.0840
     376     3 Pt  78    1.475010    4.180300   30.845200     10.0000     195.0840
     377     3 Pt  78    4.361540    4.159080   30.761500     10.0000     195.0840
     378     3 Pt  78    7.154960    3.929370   30.821100     10.0000     195.0840
     379     3 Pt  78    9.952800    4.169080   30.759900     10.0000     195.0840
     380     3 Pt  78    1.420110    6.945940   30.820900     10.0000     195.0840
     381     3 Pt  78    4.245730    6.910170   30.770000     10.0000     195.0840
     382     3 Pt  78    6.960780    6.804930   30.912900     10.0000     195.0840
     383     3 Pt  78    9.814270    6.858700   30.702400     10.0000     195.0840
     384     3 Pt  78    1.429740    9.815540   30.847200     10.0000     195.0840
     385     3 Pt  78    4.262180    9.635980   30.890300     10.0000     195.0840
     386     3 Pt  78    6.993870    9.637700   30.803300     10.0000     195.0840
     387     3 Pt  78    9.699630    9.636540   30.781200     10.0000     195.0840




 SCF PARAMETERS         Density guess:                                   RESTART
                        --------------------------------------------------------
                        max_scf:                                             500
                        max_scf_history:                                       0
                        max_diis:                                              4
                        --------------------------------------------------------
                        eps_scf:                                        1.00E-06
                        eps_scf_history:                                0.00E+00
                        eps_diis:                                       1.00E-01
                        eps_eigval:                                     1.00E-05
                        --------------------------------------------------------
                        level_shift [a.u.]:                                 0.00
                        added MOs                                       500    0
                        --------------------------------------------------------
                        Mixing method:                            BROYDEN_MIXING
                                                charge density mixing in g-space
                        --------------------------------------------------------
                        Smear method:                                FERMI_DIRAC
                        Electronic temperature [K]:                        300.0
                        Electronic temperature [a.u.]:                  9.50E-04
                        Accuracy threshold:                             1.00E-10
                        --------------------------------------------------------
                        No outer SCF

 PW_GRID| Information for grid number                                          1
 PW_GRID| Grid distributed over                                    48 processors
 PW_GRID| Real space group dimensions                                    48    1
 PW_GRID| the grid is blocked:                                                NO
 PW_GRID| Cutoff [a.u.]                                                    200.0
 PW_GRID| spherical cutoff:                                                   NO
 PW_GRID|   Bounds   1            -67      67                Points:         135
 PW_GRID|   Bounds   2            -67      67                Points:         135
 PW_GRID|   Bounds   3           -225     224                Points:         450
 PW_GRID| Volume element (a.u.^3)  0.3740E-02     Volume (a.u.^3)     30674.0300
 PW_GRID| Grid span                                                    FULLSPACE
 PW_GRID|   Distribution                         Average         Max         Min
 PW_GRID|   G-Vectors                           170859.4      170910      170775
 PW_GRID|   G-Rays                                1265.6        1266        1265
 PW_GRID|   Real Space Points                   170859.4      182250      121500

 PW_GRID| Information for grid number                                          2
 PW_GRID| Number of the reference grid                                         1
 PW_GRID| Grid distributed over                                    48 processors
 PW_GRID| Real space group dimensions                                    48    1
 PW_GRID| the grid is blocked:                                                NO
 PW_GRID| Cutoff [a.u.]                                                     66.7
 PW_GRID| spherical cutoff:                                                   NO
 PW_GRID|   Bounds   1            -40      39                Points:          80
 PW_GRID|   Bounds   2            -40      39                Points:          80
 PW_GRID|   Bounds   3           -128     127                Points:         256
 PW_GRID| Volume element (a.u.^3)  0.1872E-01     Volume (a.u.^3)     30674.0300
 PW_GRID| Grid span                                                    FULLSPACE
 PW_GRID|   Distribution                         Average         Max         Min
 PW_GRID|   G-Vectors                            34133.3       34560       33840
 PW_GRID|   G-Rays                                 426.7         432         423
 PW_GRID|   Real Space Points                    34133.3       40960       20480

 PW_GRID| Information for grid number                                          3
 PW_GRID| Number of the reference grid                                         1
 PW_GRID| Grid distributed over                                    48 processors
 PW_GRID| Real space group dimensions                                     6    8
 PW_GRID| the grid is blocked:                                                NO
 PW_GRID| Cutoff [a.u.]                                                     22.2
 PW_GRID| spherical cutoff:                                                   NO
 PW_GRID|   Bounds   1            -22      22                Points:          45
 PW_GRID|   Bounds   2            -22      22                Points:          45
 PW_GRID|   Bounds   3            -75      74                Points:         150
 PW_GRID| Volume element (a.u.^3)  0.1010         Volume (a.u.^3)     30674.0300
 PW_GRID| Grid span                                                    FULLSPACE
 PW_GRID|   Distribution                         Average         Max         Min
 PW_GRID|   G-Vectors                             6328.1        6705        5940
 PW_GRID|   G-Rays                                 140.6         149         132
 PW_GRID|   Real Space Points                     6328.1        7200        5250

 PW_GRID| Information for grid number                                          4
 PW_GRID| Number of the reference grid                                         1
 PW_GRID| Grid distributed over                                    48 processors
 PW_GRID| Real space group dimensions                                     6    8
 PW_GRID| the grid is blocked:                                                NO
 PW_GRID| Cutoff [a.u.]                                                      7.4
 PW_GRID| spherical cutoff:                                                   NO
 PW_GRID|   Bounds   1            -13      13                Points:          27
 PW_GRID|   Bounds   2            -13      13                Points:          27
 PW_GRID|   Bounds   3            -45      44                Points:          90
 PW_GRID| Volume element (a.u.^3)  0.4675         Volume (a.u.^3)     30674.0300
 PW_GRID| Grid span                                                    FULLSPACE
 PW_GRID|   Distribution                         Average         Max         Min
 PW_GRID|   G-Vectors                             1366.9        1566        1242
 PW_GRID|   G-Rays                                  50.6          58          46
 PW_GRID|   Real Space Points                     1366.9        1800        1080

 POISSON| Solver                                                        PERIODIC
 POISSON| Periodicity                                                        XYZ

 RS_GRID| Information for grid number                                          1
 RS_GRID|   Bounds   1            -67      67                Points:         135
 RS_GRID|   Bounds   2            -67      67                Points:         135
 RS_GRID|   Bounds   3           -225     224                Points:         450
 RS_GRID| Real space distribution over                                 48 groups
 RS_GRID| Real space distribution along direction                              3
 RS_GRID| Border size                                                         35
 RS_GRID|   Distribution                         Average         Max         Min
 RS_GRID|   Planes                                  79.4          80          79

 RS_GRID| Information for grid number                                          2
 RS_GRID|   Bounds   1            -40      39                Points:          80
 RS_GRID|   Bounds   2            -40      39                Points:          80
 RS_GRID|   Bounds   3           -128     127                Points:         256
 RS_GRID| Real space distribution over                                 48 groups
 RS_GRID| Real space distribution along direction                              3
 RS_GRID| Border size                                                         23
 RS_GRID|   Distribution                         Average         Max         Min
 RS_GRID|   Planes                                  51.3          52          51

 RS_GRID| Information for grid number                                          3
 RS_GRID|   Bounds   1            -22      22                Points:          45
 RS_GRID|   Bounds   2            -22      22                Points:          45
 RS_GRID|   Bounds   3            -75      74                Points:         150
 RS_GRID| Real space fully replicated
[...]
    380      3      Pt         -0.00147260     0.00547331     0.00324740
    381      3      Pt         -0.00663666    -0.00113651     0.00925947
    382      3      Pt          0.00994928     0.00835798    -0.01435327
    383      3      Pt          0.00694925     0.01234021     0.02182049
    384      3      Pt         -0.00388972    -0.00441780    -0.00973437
    385      3      Pt         -0.00494106     0.01729971    -0.00960983
    386      3      Pt         -0.00006637     0.00064314     0.00193765
    387      3      Pt          0.01571323     0.00533500     0.00099238
 SUM OF ATOMIC FORCES           0.00074154    -0.00382885    -0.01058910     0.01128446

 STRESS| Analytical stress tensor [GPa]
 STRESS|                        x                   y                   z
 STRESS|      x       -4.80686548515E+00   1.52404879298E-02  -2.86785861600E-02
 STRESS|      y        1.52404879298E-02  -5.03145191764E+00   1.76644203199E-01
 STRESS|      z       -2.86785861600E-02   1.76644203199E-01  -2.28171714540E-01
 STRESS| 1/3 Trace                                            -3.35549637244E+00
 STRESS| Determinant                                          -5.36442364715E+00

 STRESS| Eigenvectors and eigenvalues of the analytical stress tensor [GPa]
 STRESS|                        1                   2                   3
 STRESS| Eigenvalues  -5.03908191370E+00  -4.80589515263E+00  -2.21512051003E-01
 STRESS|      x          -0.069996331891      0.997528425318     -0.006128148597
 STRESS|      y           0.996860109728      0.070174773804      0.036680004828
 STRESS|      z          -0.037019388899      0.003541441092      0.999308272277

 -------------------------------------------------------------------------------
 -                                                                             -
 -                                DBCSR STATISTICS                             -
 -                                                                             -
 -------------------------------------------------------------------------------
 COUNTER                                    TOTAL       BLAS       SMM       ACC
 flops     5 x     5 x   120           5421492000       0.0%    100.0%      0.0%
 flops    13 x     5 x   120           6272978400       0.0%    100.0%      0.0%
 flops     5 x    13 x   120           6286550400       0.0%    100.0%      0.0%
 flops    13 x    13 x   120           7212703680       0.0%    100.0%      0.0%
 flops    20 x    13 x   120           8407401600       0.0%    100.0%      0.0%
 flops    13 x    20 x   120           8411020800       0.0%    100.0%      0.0%
 flops     5 x    20 x   120           8801616000       0.0%    100.0%      0.0%
 flops    20 x     5 x   120           8818320000       0.0%    100.0%      0.0%
 flops     5 x     5 x    96          21685968000       0.0%    100.0%      0.0%
 flops    13 x     5 x    96          25091913600       0.0%    100.0%      0.0%
 flops     5 x    13 x    96          25146201600       0.0%    100.0%      0.0%
 flops    20 x    20 x   120          25924608000       0.0%    100.0%      0.0%
 flops    13 x    13 x    96          28850814720       0.0%    100.0%      0.0%
 flops    20 x    13 x    96          33629606400       0.0%    100.0%      0.0%
 flops    13 x    20 x    96          33644083200       0.0%    100.0%      0.0%
 flops     5 x     5 x   128          34697548800       0.0%    100.0%      0.0%
 flops     5 x    20 x    96          35206464000       0.0%    100.0%      0.0%
 flops    20 x     5 x    96          35273280000       0.0%    100.0%      0.0%
 flops    13 x     5 x   128          40147061760       0.0%    100.0%      0.0%
 flops     5 x    13 x   128          40233922560       0.0%    100.0%      0.0%
 flops    13 x    13 x   128          46161303552       0.0%    100.0%      0.0%
 flops    20 x    13 x   128          53807370240       0.0%    100.0%      0.0%
 flops    13 x    20 x   128          53830533120       0.0%    100.0%      0.0%
 flops     5 x    20 x   128          56330342400       0.0%    100.0%      0.0%
 flops    20 x     5 x   128          56437248000       0.0%    100.0%      0.0%
 flops    20 x    20 x    96         103698432000       0.0%    100.0%      0.0%
 flops    20 x    20 x   128         165917491200       0.0%    100.0%      0.0%
 flops inhomo. stacks                           0       0.0%      0.0%      0.0%
 flops total                       975.346276E+09       0.0%    100.0%      0.0%
 flops max/rank                     21.259431E+09       0.0%    100.0%      0.0%
 matmuls inhomo. stacks                         0       0.0%      0.0%      0.0%
 matmuls total                           37922952       0.0%    100.0%      0.0%
 number of processed stacks                300672       0.0%    100.0%      0.0%
 average stack size                                     0.0     126.1       0.0
 marketing flops                     1.793141E+12
 -------------------------------------------------------------------------------
 # multiplications                             58
 max memory usage/rank             384.983040E+06
 # max total images/rank                        3
 # max 3D layers                                1
 # MPI messages exchanged                   55680
 MPI messages size (bytes):
  total size                        36.887978E+09
  min size                         264.192000E+03
  max size                           1.067008E+06
  average size                     662.499625E+03
 MPI breakdown and total messages size (bytes):
             size <=      128                   0                        0
       128 < size <=     8192                   0                        0
      8192 < size <=    32768                   0                        0
     32768 < size <=   131072                   0                        0
    131072 < size <=  4194304               55680              36887977728
   4194304 < size <= 16777216                   0                        0
  16777216 < size                               0                        0
 -------------------------------------------------------------------------------

 *** WARNING in dbcsr_mm.F:294 :: Using a non-square number of MPI ranks ***
 *** might lead to poor performance. Used ranks: 48 Suggested: 49 100    ***

 -------------------------------------------------------------------------------
 -                                                                             -
 -                      DBCSR MESSAGE PASSING PERFORMANCE                      -
 -                                                                             -
 -------------------------------------------------------------------------------
 ROUTINE             CALLS      AVE VOLUME [Bytes]
 MP_Bcast               28                     12.
 MP_Allreduce          484                     11.
 MP_Alltoall          1636                 611848.
 MP_ISend             2784                 297477.
 MP_IRecv             2784                 286334.
 -------------------------------------------------------------------------------

 -------------------------------------------------------------------------------
 -                                                                             -
 -                                GRID STATISTICS                              -
 -                                                                             -
 -------------------------------------------------------------------------------
 LP    KERNEL             BACKEND                              COUNT     PERCENT
 3     collocate ortho    REF                               17089816      19.36%
 3     integrate ortho    REF                               16795164      19.03%
 2     collocate ortho    REF                               15159402      17.17%
 2     integrate ortho    REF                               14898033      16.88%
 4     collocate ortho    REF                               11848994      13.42%
 4     integrate ortho    REF                               11644701      13.19%
 6     integrate ortho    REF                                 294652       0.33%
 5     integrate ortho    REF                                 261369       0.30%
 7     integrate ortho    REF                                 204293       0.23%
 0     collocate general  REF                                  37152       0.04%
 0     integrate general  REF                                  18576       0.02%
 3     integrate general  REF                                  18576       0.02%
 -------------------------------------------------------------------------------

 MEMORY| Estimated peak process memory [MiB]                                 366

 -------------------------------------------------------------------------------
 ----                             MULTIGRID INFO                            ----
 -------------------------------------------------------------------------------
 count for grid        1:         470392          cutoff [a.u.]          200.00
 count for grid        2:         481862          cutoff [a.u.]           66.67
 count for grid        3:         383606          cutoff [a.u.]           22.22
 count for grid        4:         379122          cutoff [a.u.]            7.41
 total gridlevel count  :        1714982

 -------------------------------------------------------------------------------
 -                                                                             -
 -                         MESSAGE PASSING PERFORMANCE                         -
 -                                                                             -
 -------------------------------------------------------------------------------

 ROUTINE             CALLS      AVE VOLUME [Bytes]
 MP_Group                4
 MP_Bcast              217                2593675.
 MP_Allreduce         2349                  19918.
 MP_Sync                62
 MP_Alltoall          1409                5699190.
 MP_SendRecv           188                   7407.
 MP_ISendRecv        10904                  36000.
 MP_Wait             25648
 MP_ISend            13448                 123649.
 MP_IRecv            13448                 123649.
 MP_Recv               126                1062656.
 MP_Write_All            3                 867025.
 -------------------------------------------------------------------------------


 -------------------------------------------------------------------------------
 -                                                                             -
 -                           R E F E R E N C E S                               -
 -                                                                             -
 -------------------------------------------------------------------------------
 
 CP2K version 8.2, the CP2K developers group (2021).
 CP2K is freely available from https://www.cp2k.org/ .

 Kuehne,Thomas D.; Iannuzzi,Marcella; Del Ben,Mauro;
 Rybkin,Vladimir V.; Seewald,Patrick; Stein,Frederick; Laino,Teodoro;
 Khaliullin,Rustam Z.; Schuett,Ole; Schiffmann,Florian; Golze,Dorothea;
 Wilhelm,Jan; Chulkov,Sergey; Bani-Hashemian,Mohammad Hossein;
 Weber,Valery; Borstnik,Urban; Taillefumier,Mathieu;
 Jakobovits,Alice Shoshana; Lazzaro,Alfio; Pabst,Hans; Mueller,Tiziano;
 Schade,Robert; Guidon,Manuel; Andermatt,Samuel; Holmberg,Nico;
 Schenter,Gregory K.; Hehn,Anna; Bussy,Augustin; Belleflamme,Fabian;
 Tabacchi,Gloria; Gloess,Andreas; Lass,Michael; Bethune,Iain;
 Mundy,Christopher J.; Plessl,Christian; Watkins,Matt;
 VandeVondele,Joost; Krack,Matthias; Hutter,Juerg. 
 The Journal of Chemical Physics, 152 (19), (2020). 
 CP2K: An electronic structure and molecular dynamics software package -
 Quickstep: Efficient and accurate electronic structure calculations.
 https://doi.org/10.1063/5.0007045

 Goerigk, Lars; Hansen, Andreas; Bauer, Christoph; Ehrlich, Stephan;
 Najibi, Asim; Grimme, Stefan. , 19 (48), (2017). 
 A look at the density functional theory zoo with the advanced GMTKN55 database
 for general main group thermochemistry, kinetics and noncovalent interactions.
 https://doi.org/10.1039/C7CP04913G

 Schuett, Ole; Messmer, Peter; Hutter, Juerg; VandeVondele, Joost. 
 Electronic Structure Calculations on Graphics Processing Units, John
 Wiley & Sons, Ltd, 173-190 (2016). 
 GPU-Accelerated Sparse Matrix-Matrix Multiplication for
 Linear Scaling Density Functional Theory.
 https://doi.org/10.1002/9781118670712.ch8

 Heinecke, A; Henry, G; Hutchinson, M; Pabst, H. 
 Proceedings of Intl. Supercomputing Conference, 981-991 (2016). 
 LIBXSMM: Accelerating Small Matrix Multiplications
 by Runtime Code Generation.
 https://doi.org/10.1109/SC.2016.83

 Borstnik, U; VandeVondele, J; Weber, V; Hutter, J. 
 PARALLEL COMPUTING, 40 (5-6), 47-58 (2014). 
 Sparse matrix multiplication: The distributed block-compressed sparse
 row library.
 https://doi.org/10.1016/j.parco.2014.03.012

 Hutter, J; Iannuzzi, M; Schiffmann, F; VandeVondele, J. 
 WIREs Comput Mol Sci., 4 (1), 15-25 (2014). 
 CP2K: atomistic simulations of condensed matter systems.
 https://doi.org/10.1002/wcms.1159

 Marek, A; Blum, V; Johanni, R; Havu, V; Lang, B; Auckenthaler, T;
 Heinecke, A; Bungartz, H; Lederer, H. 
 Journal of Physics: Condensed Matter, 26 (21), (2014). 
 The ELPA library: scalable parallel eigenvalue solutions for
 electronic structure
 theory and computational science.
 https://doi.org/10.1088/0953-8984/26/21/213201

 Grimme, S; Ehrlich, S; Goerigk, L. 
 JOURNAL OF COMPUTATIONAL CHEMISTRY, 32, 1456 (2011). 
 Effect of the damping function in dispersion corrected density functional theory.
 https://doi.org/10.1002/jcc.21759

 Grimme, S; Antony, J; Ehrlich, S; Krieg, H. 
 JOURNAL OF CHEMICAL PHYSICS, 132 (15), 154104 (2010). 
 A consistent and accurate ab initio parametrization of density
 functional dispersion correction (DFT-D) for the 94 elements H-Pu.
 https://doi.org/10.1063/1.3382344

 VandeVondele, J; Hutter, J. 
 JOURNAL OF CHEMICAL PHYSICS, 127 (11), 114105 (2007). 
 Gaussian basis sets for accurate calculations on molecular systems in
 gas and condensed phases.
 https://doi.org/10.1063/1.2770708

 Krack, M. 
 THEORETICAL CHEMISTRY ACCOUNTS, 114 (1-3), 145-152 (2005). 
 Pseudopotentials for H to Kr optimized for gradient-corrected
 exchange-correlation functionals.
 https://doi.org/10.1007/s00214-005-0655-y

 VandeVondele, J; Krack, M; Mohamed, F; Parrinello, M; Chassaing, T;
 Hutter, J. COMPUTER PHYSICS COMMUNICATIONS, 167 (2), 103-128 (2005). 
 QUICKSTEP: Fast and accurate density functional calculations using a
 mixed Gaussian and plane waves approach.
 https://doi.org/10.1016/j.cpc.2004.12.014

 Frigo, M; Johnson, SG. 
 PROCEEDINGS OF THE IEEE, 93 (2), 216-231 (2005). 
 The design and implementation of FFTW3.
 https://doi.org/10.1109/JPROC.2004.840301

 Hartwigsen, C; Goedecker, S; Hutter, J. 
 PHYSICAL REVIEW B, 58 (7), 3641-3662 (1998). 
 Relativistic separable dual-space Gaussian pseudopotentials from H to Rn.
 https://doi.org/10.1103/PhysRevB.58.3641

 Lippert, G; Hutter, J; Parrinello, M. 
 MOLECULAR PHYSICS, 92 (3), 477-487 (1997). 
 A hybrid Gaussian and plane wave density functional scheme.
 https://doi.org/10.1080/002689797170220

 Perdew, JP; Burke, K; Ernzerhof, M. 
 PHYSICAL REVIEW LETTERS, 77 (18), 3865-3868 (1996). 
 Generalized gradient approximation made simple.
 https://doi.org/10.1103/PhysRevLett.77.3865

 Goedecker, S; Teter, M; Hutter, J. 
 PHYSICAL REVIEW B, 54 (3), 1703-1710 (1996). 
 Separable dual-space Gaussian pseudopotentials.
 https://doi.org/10.1103/PhysRevB.54.1703


 -------------------------------------------------------------------------------
 -                                                                             -
 -                                T I M I N G                                  -
 -                                                                             -
 -------------------------------------------------------------------------------
 SUBROUTINE                       CALLS  ASD         SELF TIME        TOTAL TIME
                                MAXIMUM       AVERAGE  MAXIMUM  AVERAGE  MAXIMUM
 CP2K                                 1  1.0    0.435    0.560  182.064  182.105
 qs_forces                            1  2.0    0.005    0.033  180.782  180.792
 qs_energies                          1  3.0    0.002    0.017  175.601  175.618
 scf_env_do_scf                       1  4.0    0.001    0.003  169.540  169.572
 scf_env_do_scf_inner_loop           57  5.0    0.004    0.008  169.539  169.571
 qs_scf_new_mos                      57  6.0    0.001    0.001   81.481   81.579
 eigensolver                         57  7.0    0.003    0.007   75.590   75.684
 rebuild_ks_matrix                   58  6.9    0.000    0.000   55.529   55.547
 qs_ks_build_kohn_sham_matrix        58  7.9    0.010    0.014   55.529   55.546
 qs_ks_update_qs_env                 57  6.0    0.000    0.000   52.943   52.962
 cp_fm_diag_elpa                     58  8.0    0.000    0.001   46.163   46.335
 cp_fm_diag_elpa_base                58  9.0   45.159   45.560   46.072   46.103
 sum_up_and_integrate                58  8.9    0.051    0.056   32.347   32.369
 integrate_v_rspace                  58  9.9    0.002    0.002   32.296   32.323
 cp_fm_triangular_multiply          171  8.0   29.762   30.116   29.762   30.116
 qs_rho_update_rho                   58  6.0    0.000    0.002   29.300   29.362
 calculate_rho_elec                  58  7.0    0.045    0.049   29.299   29.362
 grid_integrate_task_list            58 10.9   25.350   26.264   25.350   26.264
 pw_transfer                       1160 10.4    0.063    0.083   23.633   25.467
 fft_wrap_pw1pw2                   1044 11.5    0.012    0.015   23.350   25.182
 fft_wrap_pw1pw2_200                696 12.5    1.359    1.589   22.463   24.174
 grid_collocate_task_list            58  8.0   21.605   22.262   21.605   22.262
 fft3d_ps                          1044 13.5   10.564   11.415   19.052   21.200
 qs_vxc_create                       58  8.9    0.001    0.002   20.316   20.604
 xc_vxc_pw_create                    58  9.9    0.219    0.287   20.315   20.603
 xc_rho_set_and_dset_create          58 10.9    0.071    0.087   11.600   12.035
 mp_alltoall_z22v                  1044 15.5    6.578   11.116    6.578   11.116
 density_rs2pw                       58  8.0    0.003    0.004    7.085    7.673
 rs_pw_transfer                     468 10.4    0.007    0.009    6.230    6.883
 yz_to_x                            349 14.5    0.542    0.817    3.433    6.687
 gspace_mixing                       56  6.0    0.043    0.049    6.187    6.188
 xc_functional_eval                  58 11.9    0.001    0.001    5.510    5.955
 pbe_lda_eval                        58 12.9    5.509    5.955    5.509    5.955
 x_to_yz                            463 14.5    1.141    1.237    4.807    5.851
 potential_pw2rs                     58 10.9    0.005    0.006    5.399    5.414
 cp_dbcsr_plus_fm_fm_t_native        58  8.0    0.002    0.002    4.078    4.423
 calculate_dm_sparse                 57  7.0    0.005    0.006    4.045    4.381
 broyden_mixing                      56  7.0    4.213    4.286    4.351    4.371
 -------------------------------------------------------------------------------

 The number of warnings for this run is : 2
 
 -------------------------------------------------------------------------------
  **** **** ******  **  PROGRAM ENDED AT                 2023-03-02 21:42:52.374
 ***** ** ***  *** **   PROGRAM RAN ON                                   c51-029
 **    ****   ******    PROGRAM RAN BY                                     jxzhu
 ***** **    ** ** **   PROGRAM PROCESS ID                                 10381
  **** **  *******  **  PROGRAM STOPPED IN /data/jxzhu/2022_leiden/03.e_polariza
                                           bility/19.water_layer_test/pbc/00
