 DBCSR| CPU Multiplication driver                                           XSMM
 DBCSR| Multrec recursion limit                                              512
 DBCSR| Multiplication stack size                                           1000
 DBCSR| Maximum elements for images                                    UNLIMITED
 DBCSR| Multiplicative factor virtual images                                   1
 DBCSR| Use multiplication densification                                       T
 DBCSR| Multiplication size stacks                                             3
 DBCSR| Use memory pool for CPU allocation                                     F
 DBCSR| Number of 3D layers                                               SINGLE
 DBCSR| Use MPI memory allocation                                              F
 DBCSR| Use RMA algorithm                                                      F
 DBCSR| Use Communication thread                                               T
 DBCSR| Communication thread load                                             87
 DBCSR| MPI: My node id                                                        0
 DBCSR| MPI: Number of nodes                                                  24
 DBCSR| OMP: Current number of threads                                         1
 DBCSR| OMP: Max number of threads                                             1
 DBCSR| Split modifier for TAS multiplication algorithm                  1.0E+00


  **** **** ******  **  PROGRAM STARTED AT               2023-03-09 22:04:37.039
 ***** ** ***  *** **   PROGRAM STARTED ON                              c51-s001
 **    ****   ******    PROGRAM STARTED BY                                 jxzhu
 ***** **    ** ** **   PROGRAM PROCESS ID                                164714
  **** **  *******  **  PROGRAM STARTED IN /data/jxzhu/2022_leiden/IntDielec/tes
                                           ts/workflow/test_itereleceps/search_h
                                           i.000010

 CP2K| version string:                                          CP2K version 9.1
 CP2K| source code revision number:                                  git:d8d7100
 CP2K| cp2kflags: ndebug omp libint fftw3 libxc elpa parallel mpi3 scalapack xsm
 CP2K|            m max_contr=4 no_ipi_driver plumed2 mkl
 CP2K| is freely available from                            https://www.cp2k.org/
 CP2K| Program compiled at                           Tue Mar 7 19:02:13 CST 2023
 CP2K| Program compiled on                                                 mgt02
 CP2K| Program compiled for                                  Linux-x86-64-intelx
 CP2K| Data directory path                                    /data/jxzhu/basis/
 CP2K| Input file name                                                 input.inp

 GLOBAL| Force Environment number                                              1
 GLOBAL| Basis set file name                                        BASIS_MOLOPT
 GLOBAL| Potential file name                                      GTH_POTENTIALS
 GLOBAL| MM Potential file name                                     MM_POTENTIAL
 GLOBAL| Coordinate file name                                          coord.xyz
 GLOBAL| Method name                                                        CP2K
 GLOBAL| Project name                                                       cp2k
 GLOBAL| Run type                                                   ENERGY_FORCE
 GLOBAL| FFT library                                                       FFTW3
 GLOBAL| Diagonalization library                                            ELPA
 GLOBAL| Minimum number of eigenvectors for ELPA usage                        16
 GLOBAL| Orthonormality check for eigenvectors                          DISABLED
 GLOBAL| Matrix multiplication library                                 ScaLAPACK
 GLOBAL| All-to-all communication in single precision                          F
 GLOBAL| FFTs using library dependent lengths                                  T
 GLOBAL| Grid backend                                                       AUTO
 GLOBAL| Global print level                                               MEDIUM
 GLOBAL| MPI I/O enabled                                                       T
 GLOBAL| Total number of message passing processes                            24
 GLOBAL| Number of threads for this process                                    1
 GLOBAL| This output is from process                                           0
 GLOBAL| Stack size for threads created by OpenMP (OMP_STACKSIZE)        default
 GLOBAL| CPU model name                 Intel(R) Xeon(R) Gold 6128 CPU @ 3.40GHz
 GLOBAL| CPUID                                                              1003
 GLOBAL| Compiled for CPUID                                                 1002

 *** HINT in environment.F:869 :: The compiler target flags (x86_avx2)     ***
 *** used to build this binary cannot exploit all extensions of this CPU   ***
 *** model (x86_avx512). Consider compiler target flags as part of FCFLAGS ***
 *** and CFLAGS (ARCH file).                                               ***


 MEMORY| system memory details [Kb]
 MEMORY|                        rank 0           min           max       average
 MEMORY| MemTotal           1583686224    1583686224    1583686224    1583686224
 MEMORY| MemFree            1545347608    1545347608    1545347608    1545347608
 MEMORY| Buffers                     0             0             0             0
 MEMORY| Cached                1289236       1289236       1289236       1289236
 MEMORY| Slab                   472448        472448        472448        472448
 MEMORY| SReclaimable           131376        131376        131376        131376
 MEMORY| MemLikelyFree      1546768220    1546768220    1546768220    1546768220


 *** Fundamental physical constants (SI units) ***

 *** Literature: B. J. Mohr and B. N. Taylor,
 ***             CODATA recommended values of the fundamental physical
 ***             constants: 2006, Web Version 5.1
 ***             http://physics.nist.gov/constants

 Speed of light in vacuum [m/s]                             2.99792458000000E+08
 Magnetic constant or permeability of vacuum [N/A**2]       1.25663706143592E-06
 Electric constant or permittivity of vacuum [F/m]          8.85418781762039E-12
 Planck constant (h) [J*s]                                  6.62606896000000E-34
 Planck constant (h-bar) [J*s]                              1.05457162825177E-34
 Elementary charge [C]                                      1.60217648700000E-19
 Electron mass [kg]                                         9.10938215000000E-31
 Electron g factor [ ]                                     -2.00231930436220E+00
 Proton mass [kg]                                           1.67262163700000E-27
 Fine-structure constant                                    7.29735253760000E-03
 Rydberg constant [1/m]                                     1.09737315685270E+07
 Avogadro constant [1/mol]                                  6.02214179000000E+23
 Boltzmann constant [J/K]                                   1.38065040000000E-23
 Atomic mass unit [kg]                                      1.66053878200000E-27
 Bohr radius [m]                                            5.29177208590000E-11

 *** Conversion factors ***

 [u] -> [a.u.]                                              1.82288848426455E+03
 [Angstrom] -> [Bohr] = [a.u.]                              1.88972613288564E+00
 [a.u.] = [Bohr] -> [Angstrom]                              5.29177208590000E-01
 [a.u.] -> [s]                                              2.41888432650478E-17
 [a.u.] -> [fs]                                             2.41888432650478E-02
 [a.u.] -> [J]                                              4.35974393937059E-18
 [a.u.] -> [N]                                              8.23872205491840E-08
 [a.u.] -> [K]                                              3.15774647902944E+05
 [a.u.] -> [kJ/mol]                                         2.62549961709828E+03
 [a.u.] -> [kcal/mol]                                       6.27509468713739E+02
 [a.u.] -> [Pa]                                             2.94210107994716E+13
 [a.u.] -> [bar]                                            2.94210107994716E+08
 [a.u.] -> [atm]                                            2.90362800883016E+08
 [a.u.] -> [eV]                                             2.72113838565563E+01
 [a.u.] -> [Hz]                                             6.57968392072181E+15
 [a.u.] -> [1/cm] (wave numbers)                            2.19474631370540E+05
 [a.u./Bohr**2] -> [1/cm]                                   5.14048714338585E+03
 

 CELL_TOP| Volume [angstrom^3]:                                      7074.872545
 CELL_TOP| Vector a [angstrom    11.246     0.000     0.000   |a| =    11.246000
 CELL_TOP| Vector b [angstrom     0.000    11.246     0.000   |b| =    11.246000
 CELL_TOP| Vector c [angstrom     0.000     0.000    55.940   |c| =    55.940000
 CELL_TOP| Angle (b,c), alpha [degree]:                                90.000000
 CELL_TOP| Angle (a,c), beta  [degree]:                                90.000000
 CELL_TOP| Angle (a,b), gamma [degree]:                                90.000000
 CELL_TOP| Numerically orthorhombic:                                         YES

 GENERATE|  Preliminary Number of Bonds generated:                             0
 GENERATE|  Achieved consistency in connectivity generation.

 CELL| Volume [angstrom^3]:                                          7074.872545
 CELL| Vector a [angstrom]:      11.246     0.000     0.000   |a| =    11.246000
 CELL| Vector b [angstrom]:       0.000    11.246     0.000   |b| =    11.246000
 CELL| Vector c [angstrom]:       0.000     0.000    55.940   |c| =    55.940000
 CELL| Angle (b,c), alpha [degree]:                                    90.000000
 CELL| Angle (a,c), beta  [degree]:                                    90.000000
 CELL| Angle (a,b), gamma [degree]:                                    90.000000
 CELL| Numerically orthorhombic:                                             YES

 CELL_REF| Volume [angstrom^3]:                                      7074.872545
 CELL_REF| Vector a [angstrom    11.246     0.000     0.000   |a| =    11.246000
 CELL_REF| Vector b [angstrom     0.000    11.246     0.000   |b| =    11.246000
 CELL_REF| Vector c [angstrom     0.000     0.000    55.940   |c| =    55.940000
 CELL_REF| Angle (b,c), alpha [degree]:                                90.000000
 CELL_REF| Angle (a,c), beta  [degree]:                                90.000000
 CELL_REF| Angle (a,b), gamma [degree]:                                90.000000
 CELL_REF| Numerically orthorhombic:                                         YES

 *******************************************************************************
 *******************************************************************************
 **                                                                           **
 **     #####                         ##              ##                      **
 **    ##   ##            ##          ##              ##                      **
 **   ##     ##                       ##            ######                    **
 **   ##     ##  ##   ##  ##   #####  ##  ##   ####   ##    #####    #####    **
 **   ##     ##  ##   ##  ##  ##      ## ##   ##      ##   ##   ##  ##   ##   **
 **   ##  ## ##  ##   ##  ##  ##      ####     ###    ##   ######   ######    **
 **    ##  ###   ##   ##  ##  ##      ## ##      ##   ##   ##       ##        **
 **     #######   #####   ##   #####  ##  ##  ####    ##    #####   ##        **
 **           ##                                                    ##        **
 **                                                                           **
 **                                                ... make the atoms dance   **
 **                                                                           **
 **            Copyright (C) by CP2K developers group (2000-2021)             **
 **                      J. Chem. Phys. 152, 194103 (2020)                    **
 **                                                                           **
 *******************************************************************************

 DFT| Spin restricted Kohn-Sham (RKS) calculation                            RKS
 DFT| Multiplicity                                                             1
 DFT| Number of spin states                                                    1
 DFT| Charge                                                                   0
 DFT| Self-interaction correction (SIC)                                       NO
 DFT| Cutoffs: density                                              1.000000E-10
 DFT|          gradient                                             1.000000E-10
 DFT|          tau                                                  1.000000E-10
 DFT|          cutoff_smoothing_range                               0.000000E+00
 DFT| XC density smoothing                                                  NONE
 DFT| XC derivatives                                                          PW
 FUNCTIONAL| ROUTINE=NEW
 FUNCTIONAL| PBE:
 FUNCTIONAL| J.P.Perdew, K.Burke, M.Ernzerhof, Phys. Rev. Letter, vol. 77, n 18,
 FUNCTIONAL|  pp. 3865-3868, (1996){spin unpolarized}                           
 vdW POTENTIAL|                                                   Pair Potential
 vdW POTENTIAL|          DFT-D3 (Version 3.1)
 vdW POTENTIAL|          Potential Form: S. Grimme et al, JCP 132: 154104 (2010)
 vdW POTENTIAL|          Zero Damping
 vdW POTENTIAL|          Cutoff Radius [Bohr]:                             20.00
 vdW POTENTIAL|          s6 Scaling Factor:                               1.0000
 vdW POTENTIAL|          sr6 Scaling Factor:                              1.2170
 vdW POTENTIAL|          s8 Scaling Factor:                               0.7220
 vdW POTENTIAL|          Cutoff for CN calculation:                   0.1000E-05

 QS| Method:                                                                 GPW
 QS| Density plane wave grid type                        NON-SPHERICAL FULLSPACE
 QS| Number of grid levels:                                                    4
 QS| Density cutoff [a.u.]:                                                100.0
 QS| Multi grid cutoff [a.u.]: 1) grid level                               100.0
 QS|                           2) grid level                                33.3
 QS|                           3) grid level                                11.1
 QS|                           4) grid level                                 3.7
 QS| Grid level progression factor:                                          3.0
 QS| Relative density cutoff [a.u.]:                                        20.0
 QS| Interaction thresholds: eps_pgf_orb:                                3.2E-07
 QS|                         eps_filter_matrix:                          0.0E+00
 QS|                         eps_core_charge:                            1.0E-15
 QS|                         eps_rho_gspace:                             1.0E-13
 QS|                         eps_rho_rspace:                             1.0E-13
 QS|                         eps_gvg_rspace:                             3.2E-07
 QS|                         eps_ppl:                                    1.0E-02
 QS|                         eps_ppnl:                                   3.2E-09


 ATOMIC KIND INFORMATION

  1. Atomic kind: O                                     Number of atoms:      58

     Orbital Basis Set                                        DZVP-MOLOPT-SR-GTH

       Number of orbital shell sets:                                           1
       Number of orbital shells:                                               5
       Number of primitive Cartesian functions:                                5
       Number of Cartesian basis functions:                                   14
       Number of spherical basis functions:                                   13
       Norm type:                                                              2

       Normalised Cartesian orbitals:

                        Set   Shell   Orbital            Exponent    Coefficient

                          1       1    2s               10.389228       0.396646
                                                         3.849621       0.208811
                                                         1.388401      -0.301641
                                                         0.496955      -0.274061
                                                         0.162492      -0.033677

                          1       2    3s               10.389228       0.303673
                                                         3.849621       0.240943
                                                         1.388401      -0.313066
                                                         0.496955      -0.043055
                                                         0.162492       0.213991

                          1       3    3px              10.389228      -1.530415
                                                         3.849621      -1.371928
                                                         1.388401      -0.761951
                                                         0.496955      -0.253695
                                                         0.162492      -0.035541
                          1       3    3py              10.389228      -1.530415
                                                         3.849621      -1.371928
                                                         1.388401      -0.761951
                                                         0.496955      -0.253695
                                                         0.162492      -0.035541
                          1       3    3pz              10.389228      -1.530415
                                                         3.849621      -1.371928
                                                         1.388401      -0.761951
                                                         0.496955      -0.253695
                                                         0.162492      -0.035541

                          1       4    4px              10.389228      -0.565392
                                                         3.849621      -0.038231
                                                         1.388401      -0.382373
                                                         0.496955       0.179070
                                                         0.162492       0.122714
                          1       4    4py              10.389228      -0.565392
                                                         3.849621      -0.038231
                                                         1.388401      -0.382373
                                                         0.496955       0.179070
                                                         0.162492       0.122714
                          1       4    4pz              10.389228      -0.565392
                                                         3.849621      -0.038231
                                                         1.388401      -0.382373
                                                         0.496955       0.179070
                                                         0.162492       0.122714

                          1       5    4dx2             10.389228       1.867377
                                                         3.849621       0.670994
                                                         1.388401       1.353441
                                                         0.496955       0.273538
                                                         0.162492       0.006620
                          1       5    4dxy             10.389228       3.234392
                                                         3.849621       1.162195
                                                         1.388401       2.344229
                                                         0.496955       0.473781
                                                         0.162492       0.011466
                          1       5    4dxz             10.389228       3.234392
                                                         3.849621       1.162195
                                                         1.388401       2.344229
                                                         0.496955       0.473781
                                                         0.162492       0.011466
                          1       5    4dy2             10.389228       1.867377
                                                         3.849621       0.670994
                                                         1.388401       1.353441
                                                         0.496955       0.273538
                                                         0.162492       0.006620
                          1       5    4dyz             10.389228       3.234392
                                                         3.849621       1.162195
                                                         1.388401       2.344229
                                                         0.496955       0.473781
                                                         0.162492       0.011466
                          1       5    4dz2             10.389228       1.867377
                                                         3.849621       0.670994
                                                         1.388401       1.353441
                                                         0.496955       0.273538
                                                         0.162492       0.006620

       Atomic covalent radius [Angstrom]:                                  0.730

       Atomic van der Waals radius [Angstrom]:                             1.520

     GTH Potential information for                                    GTH-PBE-q6

       Description:                       Goedecker-Teter-Hutter pseudopotential
                                           Goedecker et al., PRB 54, 1703 (1996)
                                          Hartwigsen et al., PRB 58, 3641 (1998)
                                                      Krack, TCA 114, 145 (2005)

       Gaussian exponent of the core charge distribution:               8.360253
       Electronic configuration (s p d ...):                               2   4

       Parameters of the local part of the GTH pseudopotential:

                          rloc        C1          C2          C3          C4
                        0.244554  -16.667215    2.487311

       Parameters of the non-local part of the GTH pseudopotential:

                   l      r(l)      h(i,j,l)

                   0    0.220956   18.337458
                   1    0.211332

  2. Atomic kind: H                                     Number of atoms:     116

     Orbital Basis Set                                        DZVP-MOLOPT-SR-GTH

       Number of orbital shell sets:                                           1
       Number of orbital shells:                                               3
       Number of primitive Cartesian functions:                                5
       Number of Cartesian basis functions:                                    5
       Number of spherical basis functions:                                    5
       Norm type:                                                              2

       Normalised Cartesian orbitals:

                        Set   Shell   Orbital            Exponent    Coefficient

                          1       1    2s               10.068468      -0.133023
                                                         2.680223      -0.177618
                                                         0.791502      -0.258419
                                                         0.239116      -0.107525
                                                         0.082193      -0.014019

                          1       2    3s               10.068468       0.344673
                                                         2.680223       1.819821
                                                         0.791502      -0.999069
                                                         0.239116       0.017430
                                                         0.082193       0.082660

                          1       3    3px              10.068468       0.155326
                                                         2.680223       0.367157
                                                         0.791502       0.311480
                                                         0.239116       0.080105
                                                         0.082193       0.033440
                          1       3    3py              10.068468       0.155326
                                                         2.680223       0.367157
                                                         0.791502       0.311480
                                                         0.239116       0.080105
                                                         0.082193       0.033440
                          1       3    3pz              10.068468       0.155326
                                                         2.680223       0.367157
                                                         0.791502       0.311480
                                                         0.239116       0.080105
                                                         0.082193       0.033440

       Atomic covalent radius [Angstrom]:                                  0.320

       Atomic van der Waals radius [Angstrom]:                             1.090

     GTH Potential information for                                    GTH-PBE-q1

       Description:                       Goedecker-Teter-Hutter pseudopotential
                                           Goedecker et al., PRB 54, 1703 (1996)
                                          Hartwigsen et al., PRB 58, 3641 (1998)
                                                      Krack, TCA 114, 145 (2005)

       Gaussian exponent of the core charge distribution:              12.500000
       Electronic configuration (s p d ...):                                   1

       Parameters of the local part of the GTH pseudopotential:

                          rloc        C1          C2          C3          C4
                        0.200000   -4.178900    0.724463

  3. Atomic kind: Pt                                    Number of atoms:      96

     Orbital Basis Set                      DZVP-A5-Q10-323-MOL-T1-DERIVED_SET-1

       Number of orbital shell sets:                                           1
       Number of orbital shells:                                               6
       Number of primitive Cartesian functions:                                5
       Number of Cartesian basis functions:                                   23
       Number of spherical basis functions:                                   20
       Norm type:                                                              2

       Normalised Cartesian orbitals:

                        Set   Shell   Orbital            Exponent    Coefficient

                          1       1    2s                2.521825       0.177473
                                                         1.453920      -0.063399
                                                         0.614053      -0.407089
                                                         0.232656       0.262254
                                                         0.074788       0.047371

                          1       2    3s                2.521825      -0.049056
                                                         1.453920       0.044904
                                                         0.614053      -0.009756
                                                         0.232656      -0.144709
                                                         0.074788       0.144085

                          1       3    3px               2.521825      -0.317572
                                                         1.453920       0.534826
                                                         0.614053      -0.489458
                                                         0.232656       0.245631
                                                         0.074788       0.018221
                          1       3    3py               2.521825      -0.317572
                                                         1.453920       0.534826
                                                         0.614053      -0.489458
                                                         0.232656       0.245631
                                                         0.074788       0.018221
                          1       3    3pz               2.521825      -0.317572
                                                         1.453920       0.534826
                                                         0.614053      -0.489458
                                                         0.232656       0.245631
                                                         0.074788       0.018221

                          1       4    4dx2              2.521825       3.008522
                                                         1.453920      -1.224251
                                                         0.614053       0.225691
                                                         0.232656       0.125144
                                                         0.074788      -0.015348
                          1       4    4dxy              2.521825       5.210912
                                                         1.453920      -2.120465
                                                         0.614053       0.390909
                                                         0.232656       0.216756
                                                         0.074788      -0.026584
                          1       4    4dxz              2.521825       5.210912
                                                         1.453920      -2.120465
                                                         0.614053       0.390909
                                                         0.232656       0.216756
                                                         0.074788      -0.026584
                          1       4    4dy2              2.521825       3.008522
                                                         1.453920      -1.224251
                                                         0.614053       0.225691
                                                         0.232656       0.125144
                                                         0.074788      -0.015348
                          1       4    4dyz              2.521825       5.210912
                                                         1.453920      -2.120465
                                                         0.614053       0.390909
                                                         0.232656       0.216756
                                                         0.074788      -0.026584
                          1       4    4dz2              2.521825       3.008522
                                                         1.453920      -1.224251
                                                         0.614053       0.225691
                                                         0.232656       0.125144
                                                         0.074788      -0.015348

                          1       5    5dx2              2.521825       0.698026
                                                         1.453920      -1.511486
                                                         0.614053      -0.335394
                                                         0.232656      -0.025564
                                                         0.074788      -0.002699
                          1       5    5dxy              2.521825       1.209017
                                                         1.453920      -2.617970
                                                         0.614053      -0.580920
                                                         0.232656      -0.044277
                                                         0.074788      -0.004674
                          1       5    5dxz              2.521825       1.209017
                                                         1.453920      -2.617970
                                                         0.614053      -0.580920
                                                         0.232656      -0.044277
                                                         0.074788      -0.004674
                          1       5    5dy2              2.521825       0.698026
                                                         1.453920      -1.511486
                                                         0.614053      -0.335394
                                                         0.232656      -0.025564
                                                         0.074788      -0.002699
                          1       5    5dyz              2.521825       1.209017
                                                         1.453920      -2.617970
                                                         0.614053      -0.580920
                                                         0.232656      -0.044277
                                                         0.074788      -0.004674
                          1       5    5dz2              2.521825       0.698026
                                                         1.453920      -1.511486
                                                         0.614053      -0.335394
                                                         0.232656      -0.025564
                                                         0.074788      -0.002699

                          1       6    6dx2              2.521825       0.831079
                                                         1.453920      -0.709226
                                                         0.614053      -0.137351
                                                         0.232656       0.068642
                                                         0.074788       0.011745
                          1       6    6dxy              2.521825       1.439472
                                                         1.453920      -1.228415
                                                         0.614053      -0.237899
                                                         0.232656       0.118891
                                                         0.074788       0.020343
                          1       6    6dxz              2.521825       1.439472
                                                         1.453920      -1.228415
                                                         0.614053      -0.237899
                                                         0.232656       0.118891
                                                         0.074788       0.020343
                          1       6    6dy2              2.521825       0.831079
                                                         1.453920      -0.709226
                                                         0.614053      -0.137351
                                                         0.232656       0.068642
                                                         0.074788       0.011745
                          1       6    6dyz              2.521825       1.439472
                                                         1.453920      -1.228415
                                                         0.614053      -0.237899
                                                         0.232656       0.118891
                                                         0.074788       0.020343
                          1       6    6dz2              2.521825       0.831079
                                                         1.453920      -0.709226
                                                         0.614053      -0.137351
                                                         0.232656       0.068642
                                                         0.074788       0.011745

       Atomic covalent radius [Angstrom]:                                  1.300

       Atomic van der Waals radius [Angstrom]:                             1.750

     GTH Potential information for                                   GTH-PBE-q10

       Description:                       Goedecker-Teter-Hutter pseudopotential
                                           Goedecker et al., PRB 54, 1703 (1996)
                                          Hartwigsen et al., PRB 58, 3641 (1998)
                                                      Krack, TCA 114, 145 (2005)

       Gaussian exponent of the core charge distribution:               1.317676
       Electronic configuration (s p d ...):                           1   0   9

       Parameters of the local part of the GTH pseudopotential:

                          rloc        C1          C2          C3          C4
                        0.616000   11.313635

       Parameters of the non-local part of the GTH pseudopotential:

                   l      r(l)      h(i,j,l)

                   0    0.550904    4.733491   -1.784594
                                   -1.784594    2.303901
                   1    0.674138    2.534798   -1.778066
                                   -1.778066    2.103836
                   2    0.457392   -7.264011    2.558665
                                    2.558665   -2.901253


 MOLECULE KIND INFORMATION


 All atoms are their own molecule, skipping detailed information


 TOTAL NUMBERS AND MAXIMUM NUMBERS

  Total number of            - Atomic kinds:                                   3
                             - Atoms:                                        270
                             - Shell sets:                                   270
                             - Shells:                                      1214
                             - Primitive Cartesian functions:               1350
                             - Cartesian basis functions:                   3600
                             - Spherical basis functions:                   3254

  Maximum angular momentum of- Orbital basis functions:                        2
                             - Local part of the GTH pseudopotential:          2
                             - Non-local part of the GTH pseudopotential:      4


 MODULE QUICKSTEP:  ATOMIC COORDINATES IN angstrom

 Atom  Kind  Element       X           Y           Z          Z(eff)       Mass
    1   1 O    8       1.735630    2.507820   32.510800       6.0000     15.9994
    2   2 H    1       1.867650    2.517090   33.489600       1.0000      1.0079
    3   2 H    1       2.645870    2.693980   32.167800       1.0000      1.0079
    4   1 O    8       9.869140    3.641980   23.121200       6.0000     15.9994
    5   2 H    1      10.826400    3.792750   23.261200       1.0000      1.0079
    6   2 H    1       9.359870    4.062960   23.843900       1.0000      1.0079
    7   1 O    8      10.431000    5.330910   26.505300       6.0000     15.9994
    8   2 H    1       9.723080    5.658550   25.911800       1.0000      1.0079
    9   2 H    1      11.094400    6.052370   26.534100       1.0000      1.0079
   10   1 O    8       0.441971    8.554790   34.387800       6.0000     15.9994
   11   2 H    1      11.177500    8.970560   33.654000       1.0000      1.0079
   12   2 H    1       0.598779    9.394360   34.912100       1.0000      1.0079
   13   1 O    8      10.944000    3.912420   28.927000       6.0000     15.9994
   14   2 H    1      10.646500    4.353300   28.037200       1.0000      1.0079
   15   2 H    1      11.011200    4.701240   29.494100       1.0000      1.0079
   16   1 O    8       6.141260    4.014510   23.477500       6.0000     15.9994
   17   2 H    1       5.616640    4.701140   23.002500       1.0000      1.0079
   18   2 H    1       6.672220    3.747830   22.671100       1.0000      1.0079
   19   1 O    8       4.404600    2.381990   27.367200       6.0000     15.9994
   20   2 H    1       4.643510    1.485300   27.152700       1.0000      1.0079
   21   2 H    1       3.532340    2.326200   27.939400       1.0000      1.0079
   22   1 O    8       0.479881    6.200210   23.495100       6.0000     15.9994
   23   2 H    1      11.244400    6.386440   22.662200       1.0000      1.0079
   24   2 H    1       1.408020    6.352710   23.200200       1.0000      1.0079
   25   1 O    8       0.981311    0.092533   34.914300       6.0000     15.9994
   26   2 H    1       1.609320   10.971600   34.223500       1.0000      1.0079
   27   2 H    1       1.510690    0.299349   35.731400       1.0000      1.0079
   28   1 O    8       6.883180    3.688270   27.355700       6.0000     15.9994
   29   2 H    1       7.459730    3.675460   28.117800       1.0000      1.0079
   30   2 H    1       5.927270    3.441410   27.578500       1.0000      1.0079
   31   1 O    8      10.572500    8.293520   24.647200       6.0000     15.9994
   32   2 H    1      10.739100    9.269160   24.310500       1.0000      1.0079
   33   2 H    1      11.082800    7.606680   24.097200       1.0000      1.0079
   34   1 O    8       4.177480    0.511009   23.287300       6.0000     15.9994
   35   2 H    1       5.145440    0.301685   23.353500       1.0000      1.0079
   36   2 H    1       4.050460    1.183760   24.043000       1.0000      1.0079
   37   1 O    8       1.911950    9.994390   22.842800       6.0000     15.9994
   38   2 H    1       1.096460   10.273000   23.397800       1.0000      1.0079
   39   2 H    1       2.601240   10.704400   22.663400       1.0000      1.0079
   40   1 O    8       1.374940    0.421686   30.600900       6.0000     15.9994
   41   2 H    1       1.859460   10.859400   30.885600       1.0000      1.0079
   42   2 H    1       1.386150    1.044420   31.366300       1.0000      1.0079
   43   1 O    8      11.201600    6.221700   30.715500       6.0000     15.9994
   44   2 H    1      10.405200    6.753190   30.637800       1.0000      1.0079
   45   2 H    1       0.026091    5.734680   31.628400       1.0000      1.0079
   46   1 O    8       1.199200   10.388300   27.796000       6.0000     15.9994
   47   2 H    1       1.306790   11.102600   28.470100       1.0000      1.0079
   48   2 H    1       2.084900   10.426400   27.347100       1.0000      1.0079
   49   1 O    8       0.460400    4.822280   32.711300       6.0000     15.9994
   50   2 H    1       0.979039    4.069110   32.281300       1.0000      1.0079
   51   2 H    1       0.926669    5.032750   33.613000       1.0000      1.0079
   52   1 O    8       1.986350    5.407870   34.796100       6.0000     15.9994
   53   2 H    1       2.223870    4.404020   35.034100       1.0000      1.0079
   54   2 H    1       2.811620    5.727780   34.278600       1.0000      1.0079
   55   1 O    8       8.765220    1.383350   31.828900       6.0000     15.9994
   56   2 H    1       9.082900    0.534323   31.436500       1.0000      1.0079
   57   2 H    1       7.862730    1.522780   31.458200       1.0000      1.0079
   58   1 O    8       2.498030    7.184350   29.511700       6.0000     15.9994
   59   2 H    1       1.685000    7.080490   30.066100       1.0000      1.0079
   60   2 H    1       2.270230    7.292310   28.580600       1.0000      1.0079
   61   1 O    8       6.891080    9.868910   33.636700       6.0000     15.9994
   62   2 H    1       6.116460   10.378800   33.878000       1.0000      1.0079
   63   2 H    1       7.186010    9.714020   34.570100       1.0000      1.0079
   64   1 O    8       3.795150    3.197410   30.967400       6.0000     15.9994
   65   2 H    1       3.187510    3.057030   30.161600       1.0000      1.0079
   66   2 H    1       4.051170    4.183760   31.002100       1.0000      1.0079
   67   1 O    8       5.253880    0.821987   33.241200       6.0000     15.9994
   68   2 H    1       5.240240    1.533020   33.888500       1.0000      1.0079
   69   2 H    1       5.604980    1.141680   32.385500       1.0000      1.0079
   70   1 O    8       6.894140    6.945860   35.074000       6.0000     15.9994
   71   2 H    1       6.061360    7.045480   34.622900       1.0000      1.0079
   72   2 H    1       6.901780    5.934590   35.232800       1.0000      1.0079
   73   1 O    8       7.336720    8.726500   28.723400       6.0000     15.9994
   74   2 H    1       7.001530    8.632890   27.774800       1.0000      1.0079
   75   2 H    1       7.078560    7.939720   29.225400       1.0000      1.0079
   76   1 O    8       9.869950    0.347454   26.343500       6.0000     15.9994
   77   2 H    1       9.821600   10.862900   27.020800       1.0000      1.0079
   78   2 H    1      10.560600    1.007640   26.589900       1.0000      1.0079
   79   1 O    8       9.719480    9.781050   28.357400       6.0000     15.9994
   80   2 H    1      10.386400    9.048550   28.257800       1.0000      1.0079
   81   2 H    1       8.869940    9.281330   28.254800       1.0000      1.0079
   82   1 O    8       6.040800    8.421370   26.666400       6.0000     15.9994
   83   2 H    1       5.576500    7.514660   26.697900       1.0000      1.0079
   84   2 H    1       6.435280    8.545060   25.784800       1.0000      1.0079
   85   1 O    8       5.020370    5.901730   27.264600       6.0000     15.9994
   86   2 H    1       5.859560    5.430690   27.387900       1.0000      1.0079
   87   2 H    1       4.445980    5.330900   26.670300       1.0000      1.0079
   88   1 O    8       1.219540    7.565010   26.705900       6.0000     15.9994
   89   2 H    1       0.559532    7.990340   26.119200       1.0000      1.0079
   90   2 H    1       1.664380    6.826760   26.229800       1.0000      1.0079
   91   1 O    8       6.920580    0.268114   23.691500       6.0000     15.9994
   92   2 H    1       7.025410   10.575700   23.768800       1.0000      1.0079
   93   2 H    1       6.905780    0.749760   24.568300       1.0000      1.0079
   94   1 O    8       2.191050    2.273390   28.985200       6.0000     15.9994
   95   2 H    1       1.395820    2.859860   28.965100       1.0000      1.0079
   96   2 H    1       1.874300    1.517170   29.582900       1.0000      1.0079
   97   1 O    8       9.268710    1.133530   23.065500       6.0000     15.9994
   98   2 H    1       9.372160    2.062490   23.458400       1.0000      1.0079
   99   2 H    1       8.332470    0.930356   23.269000       1.0000      1.0079
  100   1 O    8       8.093060    4.024700   30.040200       6.0000     15.9994
  101   2 H    1       7.795360    3.352250   30.654200       1.0000      1.0079
  102   2 H    1       9.055330    3.891920   29.822000       1.0000      1.0079
  103   1 O    8       8.702210    7.892790   32.441200       6.0000     15.9994
  104   2 H    1       7.907300    8.491700   32.670800       1.0000      1.0079
  105   2 H    1       9.426320    8.538500   32.256500       1.0000      1.0079
  106   1 O    8       6.302460    1.858300   30.658300       6.0000     15.9994
  107   2 H    1       5.478870    2.347350   30.733100       1.0000      1.0079
  108   2 H    1       6.145220    1.139940   29.982000       1.0000      1.0079
  109   1 O    8       0.124537    2.356470   25.696300       6.0000     15.9994
  110   2 H    1       0.534649    1.849530   24.994600       1.0000      1.0079
  111   2 H    1       0.094833    3.353680   25.558900       1.0000      1.0079
  112   1 O    8       6.220910   11.187200   28.797600       6.0000     15.9994
  113   2 H    1       6.583360    0.296751   27.982700       1.0000      1.0079
  114   2 H    1       6.646020   10.294900   28.966000       1.0000      1.0079
  115   1 O    8       4.301180    6.552850   33.783400       6.0000     15.9994
  116   2 H    1       3.992530    7.477670   33.837400       1.0000      1.0079
  117   2 H    1       4.480050    6.298900   32.822600       1.0000      1.0079
  118   1 O    8       7.685810    8.909100   23.793200       6.0000     15.9994
  119   2 H    1       8.616250    8.672960   24.075300       1.0000      1.0079
  120   2 H    1       7.479940    8.132500   23.208500       1.0000      1.0079
  121   1 O    8       3.509760    8.232700   24.102200       6.0000     15.9994
  122   2 H    1       2.899800    8.829540   23.621900       1.0000      1.0079
  123   2 H    1       3.527380    8.491080   25.067700       1.0000      1.0079
  124   1 O    8       2.458670    2.863810   35.279000       6.0000     15.9994
  125   2 H    1       2.186400    2.449570   36.143400       1.0000      1.0079
  126   2 H    1       3.476360    2.843330   35.369800       1.0000      1.0079
  127   1 O    8      11.173900   10.920600   24.194500       6.0000     15.9994
  128   2 H    1      10.723400   11.210700   24.991200       1.0000      1.0079
  129   2 H    1      10.621300    0.015076   23.502500       1.0000      1.0079
  130   1 O    8       3.056890    5.805350   23.278800       6.0000     15.9994
  131   2 H    1       3.257660    5.625000   22.337000       1.0000      1.0079
  132   2 H    1       3.525650    6.663050   23.568800       1.0000      1.0079
  133   1 O    8       5.446440    1.569470   25.198600       6.0000     15.9994
  134   2 H    1       5.425710    1.642210   26.174200       1.0000      1.0079
  135   2 H    1       6.218860    2.055930   24.829300       1.0000      1.0079
  136   1 O    8       8.210240    4.457210   25.154200       6.0000     15.9994
  137   2 H    1       7.836240    3.990800   25.910600       1.0000      1.0079
  138   2 H    1       7.403960    4.389000   24.540600       1.0000      1.0079
  139   1 O    8       3.146900    9.767880   30.818700       6.0000     15.9994
  140   2 H    1       3.312520    9.550630   31.741200       1.0000      1.0079
  141   2 H    1       3.097840    8.865460   30.345900       1.0000      1.0079
  142   1 O    8       2.867070    5.027420   25.871500       6.0000     15.9994
  143   2 H    1       2.418840    4.208400   26.055600       1.0000      1.0079
  144   2 H    1       2.884850    5.066460   24.879200       1.0000      1.0079
  145   1 O    8       3.807060   10.792500   27.057600       6.0000     15.9994
  146   2 H    1       4.144850   10.470300   26.201000       1.0000      1.0079
  147   2 H    1       4.291770   10.309900   27.779500       1.0000      1.0079
  148   1 O    8       9.509620    0.974789   34.770100       6.0000     15.9994
  149   2 H    1       9.077140    0.669014   33.906300       1.0000      1.0079
  150   2 H    1      10.486600    0.630209   34.748100       1.0000      1.0079
  151   1 O    8       1.496860    2.492650   23.215400       6.0000     15.9994
  152   2 H    1       2.403750    2.744460   23.641100       1.0000      1.0079
  153   2 H    1       1.621670    2.694740   22.249600       1.0000      1.0079
  154   1 O    8       9.833450    3.697750   34.458900       6.0000     15.9994
  155   2 H    1       9.581310    2.781660   34.410700       1.0000      1.0079
  156   2 H    1      10.252400    4.035810   33.663300       1.0000      1.0079
  157   1 O    8       9.893630    9.892820   31.211200       6.0000     15.9994
  158   2 H    1      10.707500   10.238100   30.808800       1.0000      1.0079
  159   2 H    1       9.500440    9.580900   30.362300       1.0000      1.0079
  160   1 O    8       4.844340    6.009130   31.192300       6.0000     15.9994
  161   2 H    1       4.242760    6.482040   30.556700       1.0000      1.0079
  162   2 H    1       5.745660    6.302790   30.995900       1.0000      1.0079
  163   1 O    8       3.237000   10.337300   33.467600       6.0000     15.9994
  164   2 H    1       3.408460    9.888910   34.302000       1.0000      1.0079
  165   2 H    1       3.962890   10.958300   33.242900       1.0000      1.0079
  166   1 O    8       7.373700    1.216220   26.059100       6.0000     15.9994
  167   2 H    1       7.238890    2.193160   26.296400       1.0000      1.0079
  168   2 H    1       8.356880    1.081670   26.095600       1.0000      1.0079
  169   1 O    8       7.149260    6.731310   30.396800       6.0000     15.9994
  170   2 H    1       7.525050    5.855170   30.204000       1.0000      1.0079
  171   2 H    1       7.841670    7.189850   30.961700       1.0000      1.0079
  172   1 O    8       8.521810    5.898100   22.636700       6.0000     15.9994
  173   2 H    1       8.387000    6.875050   22.873900       1.0000      1.0079
  174   2 H    1       9.504990    5.763560   22.673100       1.0000      1.0079
  175   3 Pt  78       0.085365   11.226500   10.118220      10.0000    195.0840
  176   3 Pt  78       2.887410    0.073801   10.114420      10.0000    195.0840
  177   3 Pt  78       5.710130    0.050102   10.064450      10.0000    195.0840
  178   3 Pt  78       8.545100    0.201211   10.000000      10.0000    195.0840
  179   3 Pt  78      11.117100    2.823240   10.001440      10.0000    195.0840
  180   3 Pt  78       2.682510    2.870110   10.069000      10.0000    195.0840
  181   3 Pt  78       5.637300    2.961250   10.133020      10.0000    195.0840
  182   3 Pt  78       8.434290    2.936140   10.168530      10.0000    195.0840
  183   3 Pt  78      11.025700    5.640120   10.101560      10.0000    195.0840
  184   3 Pt  78       2.780000    5.635590   10.127970      10.0000    195.0840
  185   3 Pt  78       5.542790    5.708510   10.010130      10.0000    195.0840
  186   3 Pt  78       8.342690    5.730310   10.134520      10.0000    195.0840
  187   3 Pt  78      11.187500    8.419820   10.048000      10.0000    195.0840
  188   3 Pt  78       2.809950    8.420570   10.042540      10.0000    195.0840
  189   3 Pt  78       5.571480    8.430410   10.201160      10.0000    195.0840
  190   3 Pt  78       8.324970    8.556340   10.116270      10.0000    195.0840
  191   3 Pt  78       1.405600    1.405600   12.149290      10.0000    195.0840
  192   3 Pt  78       4.217110    1.405600   12.149290      10.0000    195.0840
  193   3 Pt  78       7.028570    1.405600   12.149280      10.0000    195.0840
  194   3 Pt  78       9.840070    1.405600   12.149300      10.0000    195.0840
  195   3 Pt  78       1.405600    4.217110   12.149290      10.0000    195.0840
  196   3 Pt  78       4.217110    4.217110   12.149280      10.0000    195.0840
  197   3 Pt  78       7.028570    4.217100   12.149270      10.0000    195.0840
  198   3 Pt  78       9.840070    4.217100   12.149290      10.0000    195.0840
  199   3 Pt  78       1.405600    7.028570   12.149280      10.0000    195.0840
  200   3 Pt  78       4.217100    7.028570   12.149270      10.0000    195.0840
  201   3 Pt  78       7.028560    7.028560   12.149270      10.0000    195.0840
  202   3 Pt  78       9.840070    7.028570   12.149290      10.0000    195.0840
  203   3 Pt  78       1.405600    9.840070   12.149300      10.0000    195.0840
  204   3 Pt  78       4.217100    9.840070   12.149290      10.0000    195.0840
  205   3 Pt  78       7.028570    9.840070   12.149290      10.0000    195.0840
  206   3 Pt  78       9.840070    9.840070   12.149300      10.0000    195.0840
  207   3 Pt  78      11.245900   11.245900   14.180450      10.0000    195.0840
  208   3 Pt  78       2.811380   11.245900   14.180440      10.0000    195.0840
  209   3 Pt  78       5.622860   11.245900   14.180450      10.0000    195.0840
  210   3 Pt  78       8.434330   11.245900   14.180440      10.0000    195.0840
  211   3 Pt  78      11.245900    2.811380   14.180440      10.0000    195.0840
  212   3 Pt  78       2.811380    2.811380   14.180430      10.0000    195.0840
  213   3 Pt  78       5.622860    2.811380   14.180430      10.0000    195.0840
  214   3 Pt  78       8.434330    2.811380   14.180430      10.0000    195.0840
  215   3 Pt  78      11.245900    5.622860   14.180450      10.0000    195.0840
  216   3 Pt  78       2.811380    5.622860   14.180430      10.0000    195.0840
  217   3 Pt  78       5.622860    5.622860   14.180440      10.0000    195.0840
  218   3 Pt  78       8.434330    5.622860   14.180430      10.0000    195.0840
  219   3 Pt  78      11.245900    8.434330   14.180440      10.0000    195.0840
  220   3 Pt  78       2.811380    8.434330   14.180430      10.0000    195.0840
  221   3 Pt  78       5.622860    8.434330   14.180430      10.0000    195.0840
  222   3 Pt  78       8.434330    8.434330   14.180430      10.0000    195.0840
  223   3 Pt  78       1.405660    1.405660   16.231000      10.0000    195.0840
  224   3 Pt  78       4.217160    1.405660   16.231000      10.0000    195.0840
  225   3 Pt  78       7.028630    1.405660   16.231000      10.0000    195.0840
  226   3 Pt  78       9.840130    1.405660   16.231000      10.0000    195.0840
  227   3 Pt  78       1.405660    4.217160   16.231000      10.0000    195.0840
  228   3 Pt  78       4.217160    4.217160   16.231000      10.0000    195.0840
  229   3 Pt  78       7.028630    4.217160   16.231000      10.0000    195.0840
  230   3 Pt  78       9.840130    4.217160   16.231000      10.0000    195.0840
  231   3 Pt  78       1.405660    7.028630   16.231000      10.0000    195.0840
  232   3 Pt  78       4.217160    7.028630   16.231000      10.0000    195.0840
  233   3 Pt  78       7.028630    7.028630   16.231000      10.0000    195.0840
  234   3 Pt  78       9.840130    7.028630   16.231000      10.0000    195.0840
  235   3 Pt  78       1.405660    9.840130   16.231000      10.0000    195.0840
  236   3 Pt  78       4.217160    9.840130   16.231000      10.0000    195.0840
  237   3 Pt  78       7.028630    9.840130   16.231000      10.0000    195.0840
  238   3 Pt  78       9.840130    9.840130   16.230900      10.0000    195.0840
  239   3 Pt  78      11.245900   11.245900   18.262100      10.0000    195.0840
  240   3 Pt  78       2.811450   11.245900   18.262100      10.0000    195.0840
  241   3 Pt  78       5.622910   11.245900   18.262100      10.0000    195.0840
  242   3 Pt  78       8.434380   11.245900   18.262100      10.0000    195.0840
  243   3 Pt  78      11.245900    2.811450   18.262100      10.0000    195.0840
  244   3 Pt  78       2.811450    2.811450   18.262100      10.0000    195.0840
  245   3 Pt  78       5.622910    2.811450   18.262100      10.0000    195.0840
  246   3 Pt  78       8.434380    2.811450   18.262100      10.0000    195.0840
  247   3 Pt  78      11.245900    5.622910   18.262100      10.0000    195.0840
  248   3 Pt  78       2.811450    5.622910   18.262100      10.0000    195.0840
  249   3 Pt  78       5.622910    5.622910   18.262100      10.0000    195.0840
  250   3 Pt  78       8.434380    5.622910   18.262100      10.0000    195.0840
  251   3 Pt  78      11.245900    8.434380   18.262100      10.0000    195.0840
  252   3 Pt  78       2.811450    8.434380   18.262100      10.0000    195.0840
  253   3 Pt  78       5.622910    8.434380   18.262100      10.0000    195.0840
  254   3 Pt  78       8.434380    8.434380   18.262100      10.0000    195.0840
  255   3 Pt  78       1.440930    1.464970   20.350900      10.0000    195.0840
  256   3 Pt  78       4.341280    1.379190   20.357400      10.0000    195.0840
  257   3 Pt  78       7.036720    1.174070   20.359100      10.0000    195.0840
  258   3 Pt  78       9.960220    1.182910   20.400500      10.0000    195.0840
  259   3 Pt  78       1.475010    4.180300   20.300500      10.0000    195.0840
  260   3 Pt  78       4.361540    4.159080   20.384200      10.0000    195.0840
  261   3 Pt  78       7.154960    3.929370   20.324600      10.0000    195.0840
  262   3 Pt  78       9.952800    4.169080   20.385800      10.0000    195.0840
  263   3 Pt  78       1.420110    6.945940   20.324800      10.0000    195.0840
  264   3 Pt  78       4.245730    6.910170   20.375700      10.0000    195.0840
  265   3 Pt  78       6.960780    6.804930   20.232800      10.0000    195.0840
  266   3 Pt  78       9.814270    6.858700   20.443300      10.0000    195.0840
  267   3 Pt  78       1.429740    9.815540   20.298500      10.0000    195.0840
  268   3 Pt  78       4.262180    9.635980   20.255400      10.0000    195.0840
  269   3 Pt  78       6.993870    9.637700   20.342400      10.0000    195.0840
  270   3 Pt  78       9.699630    9.636540   20.364500      10.0000    195.0840




 SCF PARAMETERS         Density guess:                                   RESTART
                        --------------------------------------------------------
                        max_scf:                                             500
                        max_scf_history:                                       0
                        max_diis:                                              4
                        --------------------------------------------------------
                        eps_scf:                                        1.00E-02
                        eps_scf_history:                                0.00E+00
                        eps_diis:                                       1.00E-01
                        eps_eigval:                                     1.00E-05
                        --------------------------------------------------------
                        level_shift [a.u.]:                                 0.00
                        added MOs                                       500    0
                        --------------------------------------------------------
                        Mixing method:                            BROYDEN_MIXING
                                                charge density mixing in g-space
                        --------------------------------------------------------
                        Smear method:                                FERMI_DIRAC
                        Electronic temperature [K]:                        300.0
                        Electronic temperature [a.u.]:                  9.50E-04
                        Accuracy threshold:                             1.00E-10
                        --------------------------------------------------------
                        No outer SCF

 PW_GRID| Information for grid number                                          1
 PW_GRID| Grid distributed over                                    24 processors
 PW_GRID| Real space group dimensions                                    24    1
 PW_GRID| the grid is blocked:                                                NO
 PW_GRID| Cutoff [a.u.]                                                    100.0
 PW_GRID| spherical cutoff:                                                   NO
 PW_GRID|   Bounds   1            -48      47                Points:          96
 PW_GRID|   Bounds   2            -48      47                Points:          96
 PW_GRID|   Bounds   3           -240     239                Points:         480
 PW_GRID| Volume element (a.u.^3)  0.1079E-01     Volume (a.u.^3)     47743.6071
 PW_GRID| Grid span                                                    FULLSPACE
 PW_GRID|   Distribution                         Average         Max         Min
 PW_GRID|   G-Vectors                           184320.0      184320      184320
 PW_GRID|   G-Rays                                1920.0        1920        1920
 PW_GRID|   Real Space Points                   184320.0      184320      184320

 PW_GRID| Information for grid number                                          2
 PW_GRID| Number of the reference grid                                         1
 PW_GRID| Grid distributed over                                    24 processors
 PW_GRID| Real space group dimensions                                    24    1
 PW_GRID| the grid is blocked:                                                NO
 PW_GRID| Cutoff [a.u.]                                                     33.3
 PW_GRID| spherical cutoff:                                                   NO
 PW_GRID|   Bounds   1            -27      27                Points:          55
 PW_GRID|   Bounds   2            -27      27                Points:          55
 PW_GRID|   Bounds   3           -137     137                Points:         275
 PW_GRID| Volume element (a.u.^3)  0.5739E-01     Volume (a.u.^3)     47743.6071
 PW_GRID| Grid span                                                    FULLSPACE
 PW_GRID|   Distribution                         Average         Max         Min
 PW_GRID|   G-Vectors                            34661.5       51755       31405
 PW_GRID|   G-Rays                                 630.2         941         571
 PW_GRID|   Real Space Points                    34661.5       45375       30250

 PW_GRID| Information for grid number                                          3
 PW_GRID| Number of the reference grid                                         1
 PW_GRID| Grid distributed over                                    24 processors
 PW_GRID| Real space group dimensions                                    24    1
 PW_GRID| the grid is blocked:                                                NO
 PW_GRID| Cutoff [a.u.]                                                     11.1
 PW_GRID| spherical cutoff:                                                   NO
 PW_GRID|   Bounds   1            -16      15                Points:          32
 PW_GRID|   Bounds   2            -16      15                Points:          32
 PW_GRID|   Bounds   3            -80      79                Points:         160
 PW_GRID| Volume element (a.u.^3)  0.2914         Volume (a.u.^3)     47743.6071
 PW_GRID| Grid span                                                    FULLSPACE
 PW_GRID|   Distribution                         Average         Max         Min
 PW_GRID|   G-Vectors                             6826.7        8416        3904
 PW_GRID|   G-Rays                                 213.3         263         122
 PW_GRID|   Real Space Points                     6826.7       10240        5120

 PW_GRID| Information for grid number                                          4
 PW_GRID| Number of the reference grid                                         1
 PW_GRID| Grid distributed over                                    24 processors
 PW_GRID| Real space group dimensions                                     4    6
 PW_GRID| the grid is blocked:                                                NO
 PW_GRID| Cutoff [a.u.]                                                      3.7
 PW_GRID| spherical cutoff:                                                   NO
 PW_GRID|   Bounds   1            -10       9                Points:          20
 PW_GRID|   Bounds   2            -10       9                Points:          20
 PW_GRID|   Bounds   3            -48      47                Points:          96
 PW_GRID| Volume element (a.u.^3)   1.243         Volume (a.u.^3)     47743.6071
 PW_GRID| Grid span                                                    FULLSPACE
 PW_GRID|   Distribution                         Average         Max         Min
 PW_GRID|   G-Vectors                             1600.0        1700        1440
 PW_GRID|   G-Rays                                  80.0          85          72
 PW_GRID|   Real Space Points                     1600.0        1920        1440

 POISSON| Solver                                          IMPLICIT (GENERALIZED)
 POISSON| Boundary Condition                                PERIODIC & DIRICHLET
 POISSON| Maximum number of iterations                                        30
 POISSON| Convergence threshold                                         1.00E-08
 POISSON| Dielectric Constant                                              80.00
 POISSON| Relaxation parameter                                          1.00E+00

 RS_GRID| Information for grid number                                          1
 RS_GRID|   Bounds   1            -48      47                Points:          96
 RS_GRID|   Bounds   2            -48      47                Points:          96
 RS_GRID|   Bounds   3           -240     239                Points:         480
 RS_GRID| Real space distribution over                                 24 groups
 RS_GRID| Real space distribution along direction                              3
 RS_GRID| Border size                                                         24
 RS_GRID|   Distribution                         Average         Max         Min
 RS_GRID|   Planes                                  68.0          68          68

 RS_GRID| Information for grid number                                          2
 RS_GRID|   Bounds   1            -27      27                Points:          55
 RS_GRID|   Bounds   2            -27      27                Points:          55
 RS_GRID|   Bounds   3           -137     137                Points:         275
 RS_GRID| Real space distribution over                                 24 groups
 RS_GRID| Real space distribution along direction                              3
 RS_GRID| Border size                                                         24
 RS_GRID|   Distribution                         Average         Max         Min
 RS_GRID|   Planes                                  59.5          60          59

 RS_GRID| Information for grid number                                          3
 RS_GRID|   Bounds   1            -16      15                Points:          32
 RS_GRID|   Bounds   2            -16      15                Points:          32
 RS_GRID|   Bounds   3            -80      79                Points:         160
 RS_GRID| Real space fully replicated
 RS_GRID| Group size                                                           1

 RS_GRID| Information for grid number                                          4
 RS_GRID|   Bounds   1            -10       9                Points:          20
 RS_GRID|   Bounds   2            -10       9                Points:          20
 RS_GRID|   Bounds   3            -48      47                Points:          96
 RS_GRID| Real space fully replicated
 RS_GRID| Group size                                                           1

 Number of electrons:                                                       1424
 Number of occupied orbitals:                                                712
 Number of molecular orbitals:                                              1212

 Number of orbital functions:                                               3254
 Number of independent orbital functions:                                   3254

 Extrapolation method: initial_guess

 *** WARNING in fm/cp_fm_elpa.F:521 :: Setting real_kernel for ELPA failed ***

[mpiexec@c51-s001] Sending Ctrl-C to processes as requested
[mpiexec@c51-s001] Press Ctrl-C again to force abort

===================================================================================
=   BAD TERMINATION OF ONE OF YOUR APPLICATION PROCESSES
=   RANK 0 PID 164714 RUNNING AT c51-s001
=   KILLED BY SIGNAL: 2 (Interrupt)
===================================================================================

===================================================================================
=   BAD TERMINATION OF ONE OF YOUR APPLICATION PROCESSES
=   RANK 1 PID 164715 RUNNING AT c51-s001
=   KILLED BY SIGNAL: 2 (Interrupt)
===================================================================================

===================================================================================
=   BAD TERMINATION OF ONE OF YOUR APPLICATION PROCESSES
=   RANK 2 PID 164716 RUNNING AT c51-s001
=   KILLED BY SIGNAL: 2 (Interrupt)
===================================================================================

===================================================================================
=   BAD TERMINATION OF ONE OF YOUR APPLICATION PROCESSES
=   RANK 3 PID 164717 RUNNING AT c51-s001
=   KILLED BY SIGNAL: 2 (Interrupt)
===================================================================================

===================================================================================
=   BAD TERMINATION OF ONE OF YOUR APPLICATION PROCESSES
=   RANK 4 PID 164718 RUNNING AT c51-s001
=   KILLED BY SIGNAL: 2 (Interrupt)
===================================================================================

===================================================================================
=   BAD TERMINATION OF ONE OF YOUR APPLICATION PROCESSES
=   RANK 5 PID 164719 RUNNING AT c51-s001
=   KILLED BY SIGNAL: 2 (Interrupt)
===================================================================================

===================================================================================
=   BAD TERMINATION OF ONE OF YOUR APPLICATION PROCESSES
=   RANK 6 PID 164720 RUNNING AT c51-s001
=   KILLED BY SIGNAL: 2 (Interrupt)
===================================================================================

===================================================================================
=   BAD TERMINATION OF ONE OF YOUR APPLICATION PROCESSES
=   RANK 7 PID 164721 RUNNING AT c51-s001
=   KILLED BY SIGNAL: 2 (Interrupt)
===================================================================================

===================================================================================
=   BAD TERMINATION OF ONE OF YOUR APPLICATION PROCESSES
=   RANK 8 PID 164722 RUNNING AT c51-s001
=   KILLED BY SIGNAL: 2 (Interrupt)
===================================================================================

===================================================================================
=   BAD TERMINATION OF ONE OF YOUR APPLICATION PROCESSES
=   RANK 9 PID 164723 RUNNING AT c51-s001
=   KILLED BY SIGNAL: 2 (Interrupt)
===================================================================================

===================================================================================
=   BAD TERMINATION OF ONE OF YOUR APPLICATION PROCESSES
=   RANK 10 PID 164724 RUNNING AT c51-s001
=   KILLED BY SIGNAL: 2 (Interrupt)
===================================================================================

===================================================================================
=   BAD TERMINATION OF ONE OF YOUR APPLICATION PROCESSES
=   RANK 11 PID 164725 RUNNING AT c51-s001
=   KILLED BY SIGNAL: 2 (Interrupt)
===================================================================================

===================================================================================
=   BAD TERMINATION OF ONE OF YOUR APPLICATION PROCESSES
=   RANK 12 PID 164726 RUNNING AT c51-s001
=   KILLED BY SIGNAL: 2 (Interrupt)
===================================================================================

===================================================================================
=   BAD TERMINATION OF ONE OF YOUR APPLICATION PROCESSES
=   RANK 13 PID 164727 RUNNING AT c51-s001
=   KILLED BY SIGNAL: 2 (Interrupt)
===================================================================================

===================================================================================
=   BAD TERMINATION OF ONE OF YOUR APPLICATION PROCESSES
=   RANK 14 PID 164728 RUNNING AT c51-s001
=   KILLED BY SIGNAL: 2 (Interrupt)
===================================================================================

===================================================================================
=   BAD TERMINATION OF ONE OF YOUR APPLICATION PROCESSES
=   RANK 15 PID 164729 RUNNING AT c51-s001
=   KILLED BY SIGNAL: 2 (Interrupt)
===================================================================================

===================================================================================
=   BAD TERMINATION OF ONE OF YOUR APPLICATION PROCESSES
=   RANK 16 PID 164730 RUNNING AT c51-s001
=   KILLED BY SIGNAL: 2 (Interrupt)
===================================================================================

===================================================================================
=   BAD TERMINATION OF ONE OF YOUR APPLICATION PROCESSES
=   RANK 17 PID 164731 RUNNING AT c51-s001
=   KILLED BY SIGNAL: 2 (Interrupt)
===================================================================================

===================================================================================
=   BAD TERMINATION OF ONE OF YOUR APPLICATION PROCESSES
=   RANK 18 PID 164732 RUNNING AT c51-s001
=   KILLED BY SIGNAL: 2 (Interrupt)
===================================================================================

===================================================================================
=   BAD TERMINATION OF ONE OF YOUR APPLICATION PROCESSES
=   RANK 19 PID 164733 RUNNING AT c51-s001
=   KILLED BY SIGNAL: 2 (Interrupt)
===================================================================================

===================================================================================
=   BAD TERMINATION OF ONE OF YOUR APPLICATION PROCESSES
=   RANK 20 PID 164734 RUNNING AT c51-s001
=   KILLED BY SIGNAL: 2 (Interrupt)
===================================================================================

===================================================================================
=   BAD TERMINATION OF ONE OF YOUR APPLICATION PROCESSES
=   RANK 21 PID 164735 RUNNING AT c51-s001
=   KILLED BY SIGNAL: 2 (Interrupt)
===================================================================================

===================================================================================
=   BAD TERMINATION OF ONE OF YOUR APPLICATION PROCESSES
=   RANK 22 PID 164736 RUNNING AT c51-s001
=   KILLED BY SIGNAL: 2 (Interrupt)
===================================================================================

===================================================================================
=   BAD TERMINATION OF ONE OF YOUR APPLICATION PROCESSES
=   RANK 23 PID 164737 RUNNING AT c51-s001
=   KILLED BY SIGNAL: 2 (Interrupt)
===================================================================================
