 DBCSR| CPU Multiplication driver                                           XSMM
 DBCSR| Multrec recursion limit                                              512
 DBCSR| Multiplication stack size                                           1000
 DBCSR| Maximum elements for images                                    UNLIMITED
 DBCSR| Multiplicative factor virtual images                                   1
 DBCSR| Use multiplication densification                                       T
 DBCSR| Multiplication size stacks                                             3
 DBCSR| Use memory pool for CPU allocation                                     F
 DBCSR| Number of 3D layers                                               SINGLE
 DBCSR| Use MPI memory allocation                                              F
 DBCSR| Use RMA algorithm                                                      F
 DBCSR| Use Communication thread                                               T
 DBCSR| Communication thread load                                             87
 DBCSR| MPI: My node id                                                        0
 DBCSR| MPI: Number of nodes                                                  24
 DBCSR| OMP: Current number of threads                                         1
 DBCSR| OMP: Max number of threads                                             1
 DBCSR| Split modifier for TAS multiplication algorithm                  1.0E+00


  **** **** ******  **  PROGRAM STARTED AT               2023-03-09 05:26:38.092
 ***** ** ***  *** **   PROGRAM STARTED ON                              c51-s001
 **    ****   ******    PROGRAM STARTED BY                                 jxzhu
 ***** **    ** ** **   PROGRAM PROCESS ID                                 69997
  **** **  *******  **  PROGRAM STARTED IN /data/jxzhu/2022_leiden/IntDielec/tes
                                           ts/workflow/test_eleceps/0.0

 CP2K| version string:                                          CP2K version 8.2
 CP2K| source code revision number:                                  git:310b7ab
 CP2K| cp2kflags: omp fftw3 libxc parallel mpi3 scalapack xsmm spglib mkl libvor
 CP2K|            i libbqb
 CP2K| is freely available from                            https://www.cp2k.org/
 CP2K| Program compiled at                          Fri Feb 24 21:32:25 CST 2023
 CP2K| Program compiled on                                              c51-s001
 CP2K| Program compiled for                                                local
 CP2K| Data directory path                                    /data/jxzhu/basis/
 CP2K| Input file name                                                 input.inp

 GLOBAL| Force Environment number                                              1
 GLOBAL| Basis set file name                                        BASIS_MOLOPT
 GLOBAL| Potential file name                                      GTH_POTENTIALS
 GLOBAL| MM Potential file name                                     MM_POTENTIAL
 GLOBAL| Coordinate file name                                          coord.xyz
 GLOBAL| Method name                                                        CP2K
 GLOBAL| Project name                                                       cp2k
 GLOBAL| Run type                                                   ENERGY_FORCE
 GLOBAL| FFT library                                                       FFTW3
 GLOBAL| Diagonalization library                                       ScaLAPACK
 GLOBAL| Orthonormality check for eigenvectors                          DISABLED
 GLOBAL| Matrix multiplication library                                    SCALAP
 GLOBAL| All-to-all communication in single precision                          F
 GLOBAL| FFTs using library dependent lengths                                  T
 GLOBAL| Grid backend                                                       AUTO
 GLOBAL| Global print level                                               MEDIUM
 GLOBAL| MPI I/O enabled                                                       T
 GLOBAL| Total number of message passing processes                            24
 GLOBAL| Number of threads for this process                                    1
 GLOBAL| This output is from process                                           0
 GLOBAL| CPU model name                 Intel(R) Xeon(R) Gold 6128 CPU @ 3.40GHz
 GLOBAL| CPUID                                                              1003

 MEMORY| system memory details [Kb]
 MEMORY|                        rank 0           min           max       average
 MEMORY| MemTotal           1583686224    1583686224    1583686224    1583686224
 MEMORY| MemFree            1533798900    1533798900    1533798900    1533798900
 MEMORY| Buffers                     0             0             0             0
 MEMORY| Cached                 929396        929396        929396        929396
 MEMORY| Slab                   463136        463104        463136        463124
 MEMORY| SReclaimable           115840        115840        115840        115840
 MEMORY| MemLikelyFree      1534844136    1534844136    1534844136    1534844136


 *** Fundamental physical constants (SI units) ***

 *** Literature: B. J. Mohr and B. N. Taylor,
 ***             CODATA recommended values of the fundamental physical
 ***             constants: 2006, Web Version 5.1
 ***             http://physics.nist.gov/constants

 Speed of light in vacuum [m/s]                             2.99792458000000E+08
 Magnetic constant or permeability of vacuum [N/A**2]       1.25663706143592E-06
 Electric constant or permittivity of vacuum [F/m]          8.85418781762039E-12
 Planck constant (h) [J*s]                                  6.62606896000000E-34
 Planck constant (h-bar) [J*s]                              1.05457162825177E-34
 Elementary charge [C]                                      1.60217648700000E-19
 Electron mass [kg]                                         9.10938215000000E-31
 Electron g factor [ ]                                     -2.00231930436220E+00
 Proton mass [kg]                                           1.67262163700000E-27
 Fine-structure constant                                    7.29735253760000E-03
 Rydberg constant [1/m]                                     1.09737315685270E+07
 Avogadro constant [1/mol]                                  6.02214179000000E+23
 Boltzmann constant [J/K]                                   1.38065040000000E-23
 Atomic mass unit [kg]                                      1.66053878200000E-27
 Bohr radius [m]                                            5.29177208590000E-11

 *** Conversion factors ***

 [u] -> [a.u.]                                              1.82288848426455E+03
 [Angstrom] -> [Bohr] = [a.u.]                              1.88972613288564E+00
 [a.u.] = [Bohr] -> [Angstrom]                              5.29177208590000E-01
 [a.u.] -> [s]                                              2.41888432650478E-17
 [a.u.] -> [fs]                                             2.41888432650478E-02
 [a.u.] -> [J]                                              4.35974393937059E-18
 [a.u.] -> [N]                                              8.23872205491840E-08
 [a.u.] -> [K]                                              3.15774647902944E+05
 [a.u.] -> [kJ/mol]                                         2.62549961709828E+03
 [a.u.] -> [kcal/mol]                                       6.27509468713739E+02
 [a.u.] -> [Pa]                                             2.94210107994716E+13
 [a.u.] -> [bar]                                            2.94210107994716E+08
 [a.u.] -> [atm]                                            2.90362800883016E+08
 [a.u.] -> [eV]                                             2.72113838565563E+01
 [a.u.] -> [Hz]                                             6.57968392072181E+15
 [a.u.] -> [1/cm] (wave numbers)                            2.19474631370540E+05
 [a.u./Bohr**2] -> [1/cm]                                   5.14048714338585E+03
 

 CELL_TOP| Volume [angstrom^3]:                                      7588.350960
 CELL_TOP| Vector a [angstrom    11.246     0.000     0.000   |a| =    11.246000
 CELL_TOP| Vector b [angstrom     0.000    11.246     0.000   |b| =    11.246000
 CELL_TOP| Vector c [angstrom     0.000     0.000    60.000   |c| =    60.000000
 CELL_TOP| Angle (b,c), alpha [degree]:                                90.000000
 CELL_TOP| Angle (a,c), beta  [degree]:                                90.000000
 CELL_TOP| Angle (a,b), gamma [degree]:                                90.000000
 CELL_TOP| Numerically orthorhombic:                                         YES

 GENERATE|  Preliminary Number of Bonds generated:                             0
 GENERATE|  Achieved consistency in connectivity generation.

 CELL| Volume [angstrom^3]:                                          7588.350960
 CELL| Vector a [angstrom]:      11.246     0.000     0.000   |a| =    11.246000
 CELL| Vector b [angstrom]:       0.000    11.246     0.000   |b| =    11.246000
 CELL| Vector c [angstrom]:       0.000     0.000    60.000   |c| =    60.000000
 CELL| Angle (b,c), alpha [degree]:                                    90.000000
 CELL| Angle (a,c), beta  [degree]:                                    90.000000
 CELL| Angle (a,b), gamma [degree]:                                    90.000000
 CELL| Numerically orthorhombic:                                             YES

 CELL_REF| Volume [angstrom^3]:                                      7588.350960
 CELL_REF| Vector a [angstrom    11.246     0.000     0.000   |a| =    11.246000
 CELL_REF| Vector b [angstrom     0.000    11.246     0.000   |b| =    11.246000
 CELL_REF| Vector c [angstrom     0.000     0.000    60.000   |c| =    60.000000
 CELL_REF| Angle (b,c), alpha [degree]:                                90.000000
 CELL_REF| Angle (a,c), beta  [degree]:                                90.000000
 CELL_REF| Angle (a,b), gamma [degree]:                                90.000000
 CELL_REF| Numerically orthorhombic:                                         YES

 *******************************************************************************
 *******************************************************************************
 **                                                                           **
 **     #####                         ##              ##                      **
 **    ##   ##            ##          ##              ##                      **
 **   ##     ##                       ##            ######                    **
 **   ##     ##  ##   ##  ##   #####  ##  ##   ####   ##    #####    #####    **
 **   ##     ##  ##   ##  ##  ##      ## ##   ##      ##   ##   ##  ##   ##   **
 **   ##  ## ##  ##   ##  ##  ##      ####     ###    ##   ######   ######    **
 **    ##  ###   ##   ##  ##  ##      ## ##      ##   ##   ##       ##        **
 **     #######   #####   ##   #####  ##  ##  ####    ##    #####   ##        **
 **           ##                                                    ##        **
 **                                                                           **
 **                                                ... make the atoms dance   **
 **                                                                           **
 **            Copyright (C) by CP2K developers group (2000-2021)             **
 **                      J. Chem. Phys. 152, 194103 (2020)                    **
 **                                                                           **
 *******************************************************************************

 DFT| Spin restricted Kohn-Sham (RKS) calculation                            RKS
 DFT| Multiplicity                                                             1
 DFT| Number of spin states                                                    1
 DFT| Charge                                                                   0
 DFT| Self-interaction correction (SIC)                                       NO
 DFT| Cutoffs: density                                              1.000000E-10
 DFT|          gradient                                             1.000000E-10
 DFT|          tau                                                  1.000000E-10
 DFT|          cutoff_smoothing_range                               0.000000E+00
 DFT| XC density smoothing                                                  NONE
 DFT| XC derivatives                                                          PW
 FUNCTIONAL| ROUTINE=NEW
 FUNCTIONAL| PBE:
 FUNCTIONAL| J.P.Perdew, K.Burke, M.Ernzerhof, Phys. Rev. Letter, vol. 77, n 18,
 FUNCTIONAL|  pp. 3865-3868, (1996){spin unpolarized}                           
 vdW POTENTIAL|                                                   Pair Potential
 vdW POTENTIAL|          DFT-D3 (Version 3.1)
 vdW POTENTIAL|          Potential Form: S. Grimme et al, JCP 132: 154104 (2010)
 vdW POTENTIAL|          Zero Damping
 vdW POTENTIAL|          Cutoff Radius [Bohr]:                             20.00
 vdW POTENTIAL|          s6 Scaling Factor:                               1.0000
 vdW POTENTIAL|          sr6 Scaling Factor:                              1.2170
 vdW POTENTIAL|          s8 Scaling Factor:                               0.7220
 vdW POTENTIAL|          Cutoff for CN calculation:                   0.1000E-05

 QS| Method:                                                                 GPW
 QS| Density plane wave grid type                        NON-SPHERICAL FULLSPACE
 QS| Number of grid levels:                                                    4
 QS| Density cutoff [a.u.]:                                                200.0
 QS| Multi grid cutoff [a.u.]: 1) grid level                               200.0
 QS|                           2) grid level                                66.7
 QS|                           3) grid level                                22.2
 QS|                           4) grid level                                 7.4
 QS| Grid level progression factor:                                          3.0
 QS| Relative density cutoff [a.u.]:                                        20.0
 QS| Interaction thresholds: eps_pgf_orb:                                3.2E-07
 QS|                         eps_filter_matrix:                          0.0E+00
 QS|                         eps_core_charge:                            1.0E-15
 QS|                         eps_rho_gspace:                             1.0E-13
 QS|                         eps_rho_rspace:                             1.0E-13
 QS|                         eps_gvg_rspace:                             3.2E-07
 QS|                         eps_ppl:                                    1.0E-02
 QS|                         eps_ppnl:                                   3.2E-09


 ATOMIC KIND INFORMATION

  1. Atomic kind: O                                     Number of atoms:      73

     Orbital Basis Set                                        DZVP-MOLOPT-SR-GTH

       Number of orbital shell sets:                                           1
       Number of orbital shells:                                               5
       Number of primitive Cartesian functions:                                5
       Number of Cartesian basis functions:                                   14
       Number of spherical basis functions:                                   13
       Norm type:                                                              2

       Normalised Cartesian orbitals:

                        Set   Shell   Orbital            Exponent    Coefficient

                          1       1    2s               10.389228       0.396646
                                                         3.849621       0.208811
                                                         1.388401      -0.301641
                                                         0.496955      -0.274061
                                                         0.162492      -0.033677

                          1       2    3s               10.389228       0.303673
                                                         3.849621       0.240943
                                                         1.388401      -0.313066
                                                         0.496955      -0.043055
                                                         0.162492       0.213991

                          1       3    3px              10.389228      -1.530415
                                                         3.849621      -1.371928
                                                         1.388401      -0.761951
                                                         0.496955      -0.253695
                                                         0.162492      -0.035541
                          1       3    3py              10.389228      -1.530415
                                                         3.849621      -1.371928
                                                         1.388401      -0.761951
                                                         0.496955      -0.253695
                                                         0.162492      -0.035541
                          1       3    3pz              10.389228      -1.530415
                                                         3.849621      -1.371928
                                                         1.388401      -0.761951
                                                         0.496955      -0.253695
                                                         0.162492      -0.035541

                          1       4    4px              10.389228      -0.565392
                                                         3.849621      -0.038231
                                                         1.388401      -0.382373
                                                         0.496955       0.179070
                                                         0.162492       0.122714
                          1       4    4py              10.389228      -0.565392
                                                         3.849621      -0.038231
                                                         1.388401      -0.382373
                                                         0.496955       0.179070
                                                         0.162492       0.122714
                          1       4    4pz              10.389228      -0.565392
                                                         3.849621      -0.038231
                                                         1.388401      -0.382373
                                                         0.496955       0.179070
                                                         0.162492       0.122714

                          1       5    4dx2             10.389228       1.867377
                                                         3.849621       0.670994
                                                         1.388401       1.353441
                                                         0.496955       0.273538
                                                         0.162492       0.006620
                          1       5    4dxy             10.389228       3.234392
                                                         3.849621       1.162195
                                                         1.388401       2.344229
                                                         0.496955       0.473781
                                                         0.162492       0.011466
                          1       5    4dxz             10.389228       3.234392
                                                         3.849621       1.162195
                                                         1.388401       2.344229
                                                         0.496955       0.473781
                                                         0.162492       0.011466
                          1       5    4dy2             10.389228       1.867377
                                                         3.849621       0.670994
                                                         1.388401       1.353441
                                                         0.496955       0.273538
                                                         0.162492       0.006620
                          1       5    4dyz             10.389228       3.234392
                                                         3.849621       1.162195
                                                         1.388401       2.344229
                                                         0.496955       0.473781
                                                         0.162492       0.011466
                          1       5    4dz2             10.389228       1.867377
                                                         3.849621       0.670994
                                                         1.388401       1.353441
                                                         0.496955       0.273538
                                                         0.162492       0.006620

       Atomic covalent radius [Angstrom]:                                  0.730

       Atomic van der Waals radius [Angstrom]:                             1.520

     GTH Potential information for                                    GTH-PBE-q6

       Description:                       Goedecker-Teter-Hutter pseudopotential
                                           Goedecker et al., PRB 54, 1703 (1996)
                                          Hartwigsen et al., PRB 58, 3641 (1998)
                                                      Krack, TCA 114, 145 (2005)

       Gaussian exponent of the core charge distribution:               8.360253
       Electronic configuration (s p d ...):                               2   4

       Parameters of the local part of the GTH pseudopotential:

                          rloc        C1          C2          C3          C4
                        0.244554  -16.667215    2.487311

       Parameters of the non-local part of the GTH pseudopotential:

                   l      r(l)      h(i,j,l)

                   0    0.220956   18.337458
                   1    0.211332

  2. Atomic kind: H                                     Number of atoms:     146

     Orbital Basis Set                                        DZVP-MOLOPT-SR-GTH

       Number of orbital shell sets:                                           1
       Number of orbital shells:                                               3
       Number of primitive Cartesian functions:                                5
       Number of Cartesian basis functions:                                    5
       Number of spherical basis functions:                                    5
       Norm type:                                                              2

       Normalised Cartesian orbitals:

                        Set   Shell   Orbital            Exponent    Coefficient

                          1       1    2s               10.068468      -0.133023
                                                         2.680223      -0.177618
                                                         0.791502      -0.258419
                                                         0.239116      -0.107525
                                                         0.082193      -0.014019

                          1       2    3s               10.068468       0.344673
                                                         2.680223       1.819821
                                                         0.791502      -0.999069
                                                         0.239116       0.017430
                                                         0.082193       0.082660

                          1       3    3px              10.068468       0.155326
                                                         2.680223       0.367157
                                                         0.791502       0.311480
                                                         0.239116       0.080105
                                                         0.082193       0.033440
                          1       3    3py              10.068468       0.155326
                                                         2.680223       0.367157
                                                         0.791502       0.311480
                                                         0.239116       0.080105
                                                         0.082193       0.033440
                          1       3    3pz              10.068468       0.155326
                                                         2.680223       0.367157
                                                         0.791502       0.311480
                                                         0.239116       0.080105
                                                         0.082193       0.033440

       Atomic covalent radius [Angstrom]:                                  0.320

       Atomic van der Waals radius [Angstrom]:                             1.090

     GTH Potential information for                                    GTH-PBE-q1

       Description:                       Goedecker-Teter-Hutter pseudopotential
                                           Goedecker et al., PRB 54, 1703 (1996)
                                          Hartwigsen et al., PRB 58, 3641 (1998)
                                                      Krack, TCA 114, 145 (2005)

       Gaussian exponent of the core charge distribution:              12.500000
       Electronic configuration (s p d ...):                                   1

       Parameters of the local part of the GTH pseudopotential:

                          rloc        C1          C2          C3          C4
                        0.200000   -4.178900    0.724463

  3. Atomic kind: Pt                                    Number of atoms:      96

     Orbital Basis Set                      DZVP-A5-Q10-323-MOL-T1-DERIVED_SET-1

       Number of orbital shell sets:                                           1
       Number of orbital shells:                                               6
       Number of primitive Cartesian functions:                                5
       Number of Cartesian basis functions:                                   23
       Number of spherical basis functions:                                   20
       Norm type:                                                              2

       Normalised Cartesian orbitals:

                        Set   Shell   Orbital            Exponent    Coefficient

                          1       1    2s                2.521825       0.177473
                                                         1.453920      -0.063399
                                                         0.614053      -0.407089
                                                         0.232656       0.262254
                                                         0.074788       0.047371

                          1       2    3s                2.521825      -0.049056
                                                         1.453920       0.044904
                                                         0.614053      -0.009756
                                                         0.232656      -0.144709
                                                         0.074788       0.144085

                          1       3    3px               2.521825      -0.317572
                                                         1.453920       0.534826
                                                         0.614053      -0.489458
                                                         0.232656       0.245631
                                                         0.074788       0.018221
                          1       3    3py               2.521825      -0.317572
                                                         1.453920       0.534826
                                                         0.614053      -0.489458
                                                         0.232656       0.245631
                                                         0.074788       0.018221
                          1       3    3pz               2.521825      -0.317572
                                                         1.453920       0.534826
                                                         0.614053      -0.489458
                                                         0.232656       0.245631
                                                         0.074788       0.018221

                          1       4    4dx2              2.521825       3.008522
                                                         1.453920      -1.224251
                                                         0.614053       0.225691
                                                         0.232656       0.125144
                                                         0.074788      -0.015348
                          1       4    4dxy              2.521825       5.210912
                                                         1.453920      -2.120465
                                                         0.614053       0.390909
                                                         0.232656       0.216756
                                                         0.074788      -0.026584
                          1       4    4dxz              2.521825       5.210912
                                                         1.453920      -2.120465
                                                         0.614053       0.390909
                                                         0.232656       0.216756
                                                         0.074788      -0.026584
                          1       4    4dy2              2.521825       3.008522
                                                         1.453920      -1.224251
                                                         0.614053       0.225691
                                                         0.232656       0.125144
                                                         0.074788      -0.015348
                          1       4    4dyz              2.521825       5.210912
                                                         1.453920      -2.120465
                                                         0.614053       0.390909
                                                         0.232656       0.216756
                                                         0.074788      -0.026584
                          1       4    4dz2              2.521825       3.008522
                                                         1.453920      -1.224251
                                                         0.614053       0.225691
                                                         0.232656       0.125144
                                                         0.074788      -0.015348

                          1       5    5dx2              2.521825       0.698026
                                                         1.453920      -1.511486
                                                         0.614053      -0.335394
                                                         0.232656      -0.025564
                                                         0.074788      -0.002699
                          1       5    5dxy              2.521825       1.209017
                                                         1.453920      -2.617970
                                                         0.614053      -0.580920
                                                         0.232656      -0.044277
                                                         0.074788      -0.004674
                          1       5    5dxz              2.521825       1.209017
                                                         1.453920      -2.617970
                                                         0.614053      -0.580920
                                                         0.232656      -0.044277
                                                         0.074788      -0.004674
                          1       5    5dy2              2.521825       0.698026
                                                         1.453920      -1.511486
                                                         0.614053      -0.335394
                                                         0.232656      -0.025564
                                                         0.074788      -0.002699
                          1       5    5dyz              2.521825       1.209017
                                                         1.453920      -2.617970
                                                         0.614053      -0.580920
                                                         0.232656      -0.044277
                                                         0.074788      -0.004674
                          1       5    5dz2              2.521825       0.698026
                                                         1.453920      -1.511486
                                                         0.614053      -0.335394
                                                         0.232656      -0.025564
                                                         0.074788      -0.002699

                          1       6    6dx2              2.521825       0.831079
                                                         1.453920      -0.709226
                                                         0.614053      -0.137351
                                                         0.232656       0.068642
                                                         0.074788       0.011745
                          1       6    6dxy              2.521825       1.439472
                                                         1.453920      -1.228415
                                                         0.614053      -0.237899
                                                         0.232656       0.118891
                                                         0.074788       0.020343
                          1       6    6dxz              2.521825       1.439472
                                                         1.453920      -1.228415
                                                         0.614053      -0.237899
                                                         0.232656       0.118891
                                                         0.074788       0.020343
                          1       6    6dy2              2.521825       0.831079
                                                         1.453920      -0.709226
                                                         0.614053      -0.137351
                                                         0.232656       0.068642
                                                         0.074788       0.011745
                          1       6    6dyz              2.521825       1.439472
                                                         1.453920      -1.228415
                                                         0.614053      -0.237899
                                                         0.232656       0.118891
                                                         0.074788       0.020343
                          1       6    6dz2              2.521825       0.831079
                                                         1.453920      -0.709226
                                                         0.614053      -0.137351
                                                         0.232656       0.068642
                                                         0.074788       0.011745

       Atomic covalent radius [Angstrom]:                                  1.300

       Atomic van der Waals radius [Angstrom]:                             1.750

     GTH Potential information for                                   GTH-PBE-q10

       Description:                       Goedecker-Teter-Hutter pseudopotential
                                           Goedecker et al., PRB 54, 1703 (1996)
                                          Hartwigsen et al., PRB 58, 3641 (1998)
                                                      Krack, TCA 114, 145 (2005)

       Gaussian exponent of the core charge distribution:               1.317676
       Electronic configuration (s p d ...):                           1   0   9

       Parameters of the local part of the GTH pseudopotential:

                          rloc        C1          C2          C3          C4
                        0.616000   11.313635

       Parameters of the non-local part of the GTH pseudopotential:

                   l      r(l)      h(i,j,l)

                   0    0.550904    4.733491   -1.784594
                                   -1.784594    2.303901
                   1    0.674138    2.534798   -1.778066
                                   -1.778066    2.103836
                   2    0.457392   -7.264011    2.558665
                                    2.558665   -2.901253


 MOLECULE KIND INFORMATION


 All atoms are their own molecule, skipping detailed information


 TOTAL NUMBERS AND MAXIMUM NUMBERS

  Total number of            - Atomic kinds:                                   3
                             - Atoms:                                        315
                             - Shell sets:                                   315
                             - Shells:                                      1379
                             - Primitive Cartesian functions:               1575
                             - Cartesian basis functions:                   3960
                             - Spherical basis functions:                   3599

  Maximum angular momentum of- Orbital basis functions:                        2
                             - Local part of the GTH pseudopotential:          2
                             - Non-local part of the GTH pseudopotential:      4


 MODULE QUICKSTEP:  ATOMIC COORDINATES IN angstrom

  Atom  Kind  Element       X           Y           Z          Z(eff)       Mass

       1     1 O    8    8.183360    7.445680   23.663830      6.0000      15.9994
       2     2 H    1    8.568630    6.523470   23.543280      1.0000       1.0079
       3     2 H    1    9.018540    8.039480   23.494040      1.0000       1.0079
       4     1 O    8    5.990530    8.365550   22.619950      6.0000      15.9994
       5     2 H    1    5.103890    7.940920   22.979590      1.0000       1.0079
       6     2 H    1    6.781540    7.821650   22.982060      1.0000       1.0079
       7     1 O    8    1.735630    2.507820   33.872500      6.0000      15.9994
       8     2 H    1    1.867650    2.517090   32.893700      1.0000       1.0079
       9     2 H    1    2.645870    2.693980   34.215500      1.0000       1.0079
      10     1 O    8    7.252880   10.599600   26.766700      6.0000      15.9994
      11     2 H    1    7.590200    0.238169   26.481100      1.0000       1.0079
      12     2 H    1    7.466090   10.531800   27.728100      1.0000       1.0079
      13     1 O    8    0.441971    8.554790   31.995500      6.0000      15.9994
      14     2 H    1   11.177500    8.970560   32.729300      1.0000       1.0079
      15     2 H    1    0.598779    9.394360   31.471200      1.0000       1.0079
      16     1 O    8    6.217670    0.662050   28.923400      6.0000      15.9994
      17     2 H    1    5.506360    0.509663   28.258200      1.0000       1.0079
      18     2 H    1    6.355890   11.026400   29.285600      1.0000       1.0079
      19     1 O    8   10.944000    3.912420   37.456300      6.0000      15.9994
      20     2 H    1   10.646500    4.353300   38.346100      1.0000       1.0079
      21     2 H    1   11.011200    4.701240   36.889200      1.0000       1.0079
      22     1 O    8    3.316180    9.544250   27.047500      6.0000      15.9994
      23     2 H    1    2.508500    9.045630   26.878900      1.0000       1.0079
      24     2 H    1    4.067970    9.112340   26.565200      1.0000       1.0079
      25     1 O    8    4.404600    2.381990   39.016100      6.0000      15.9994
      26     2 H    1    4.643510    1.485300   39.230600      1.0000       1.0079
      27     2 H    1    3.532340    2.326200   38.443900      1.0000       1.0079
      28     1 O    8    0.981311    0.092533   31.469000      6.0000      15.9994
      29     2 H    1    1.609320   10.971600   32.159800      1.0000       1.0079
      30     2 H    1    1.510690    0.299349   30.651900      1.0000       1.0079
      31     1 O    8    0.559995    6.172770   24.669610      6.0000      15.9994
      32     2 H    1    1.362630    5.702300   25.000570      1.0000       1.0079
      33     2 H    1    0.323252    6.766130   25.452100      1.0000       1.0079
      34     1 O    8    6.883180    3.688270   39.027600      6.0000      15.9994
      35     2 H    1    7.459730    3.675460   38.265500      1.0000       1.0079
      36     2 H    1    5.927270    3.441410   38.804800      1.0000       1.0079
      37     1 O    8    5.677860    8.553320   26.181700      6.0000      15.9994
      38     2 H    1    6.282740    7.814570   26.387200      1.0000       1.0079
      39     2 H    1    6.265650    9.380170   26.273100      1.0000       1.0079
      40     1 O    8    3.777440    7.373210   24.177650      6.0000      15.9994
      41     2 H    1    4.491460    7.577680   24.804710      1.0000       1.0079
      42     2 H    1    3.537730    6.388610   24.350570      1.0000       1.0079
      43     1 O    8    1.374940    0.421686   35.782400      6.0000      15.9994
      44     2 H    1    1.859460   10.859400   35.497700      1.0000       1.0079
      45     2 H    1    1.386150    1.044420   35.017000      1.0000       1.0079
      46     1 O    8   11.201600    6.221700   35.667800      6.0000      15.9994
      47     2 H    1   10.405200    6.753190   35.745500      1.0000       1.0079
      48     2 H    1    0.026091    5.734680   34.754900      1.0000       1.0079
      49     1 O    8   10.039000    9.226270   23.569060      6.0000      15.9994
      50     2 H    1   10.982100    9.195230   23.713020      1.0000       1.0079
      51     2 H    1    9.874180    9.767920   22.711060      1.0000       1.0079
      52     1 O    8    8.584800   10.377900   29.409400      6.0000      15.9994
      53     2 H    1    8.681210   10.976500   30.189900      1.0000       1.0079
      54     2 H    1    8.976820    9.510310   29.797500      1.0000       1.0079
      55     1 O    8    1.199200   10.388300   38.587300      6.0000      15.9994
      56     2 H    1    1.306790   11.102600   37.913200      1.0000       1.0079
      57     2 H    1    2.084900   10.426400   39.036200      1.0000       1.0079
      58     1 O    8    0.460400    4.822280   33.672000      6.0000      15.9994
      59     2 H    1    0.979039    4.069110   34.102000      1.0000       1.0079
      60     2 H    1    0.926669    5.032750   32.770300      1.0000       1.0079
      61     1 O    8    0.277878    6.370650   29.446000      6.0000      15.9994
      62     2 H    1    0.911377    6.295080   30.203200      1.0000       1.0079
      63     2 H    1   10.723700    6.843920   29.847000      1.0000       1.0079
      64     1 O    8    1.349160    1.745240   23.584640      6.0000      15.9994
      65     2 H    1    0.591474    1.287560   23.902160      1.0000       1.0079
      66     2 H    1    1.116200    2.481140   23.000560      1.0000       1.0079
      67     1 O    8    1.986350    5.407870   31.587200      6.0000      15.9994
      68     2 H    1    2.223870    4.404020   31.349200      1.0000       1.0079
      69     2 H    1    2.811620    5.727780   32.104700      1.0000       1.0079
      70     1 O    8    4.457050    5.187550   28.996100      6.0000      15.9994
      71     2 H    1    4.904890    5.436250   29.862600      1.0000       1.0079
      72     2 H    1    3.549420    5.019210   29.305700      1.0000       1.0079
      73     1 O    8    8.765220    1.383350   34.554400      6.0000      15.9994
      74     2 H    1    9.082900    0.534323   34.946800      1.0000       1.0079
      75     2 H    1    7.862730    1.522780   34.925100      1.0000       1.0079
      76     1 O    8    9.070220    8.091580   26.523400      6.0000      15.9994
      77     2 H    1    8.658750    8.935980   26.774300      1.0000       1.0079
      78     2 H    1    8.785980    7.871070   25.606100      1.0000       1.0079
      79     1 O    8    5.822420   11.034900   22.756940      6.0000      15.9994
      80     2 H    1    4.812970   11.126700   22.994190      1.0000       1.0079
      81     2 H    1    5.935030    9.983390   22.662800      1.0000       1.0079
      82     1 O    8    3.920620    2.168120   27.808700      6.0000      15.9994
      83     2 H    1    3.958400    1.822310   26.843400      1.0000       1.0079
      84     2 H    1    4.123170    3.110590   27.814100      1.0000       1.0079
      85     1 O    8    2.498030    7.184350   36.871600      6.0000      15.9994
      86     2 H    1    1.685000    7.080490   36.317200      1.0000       1.0079
      87     2 H    1    2.270230    7.292310   37.802700      1.0000       1.0079
      88     1 O    8    5.106840    2.379070   30.906900      6.0000      15.9994
      89     2 H    1    5.311670    1.736310   30.129300      1.0000       1.0079
      90     2 H    1    5.840290    3.061380   31.067900      1.0000       1.0079
      91     1 O    8    6.891080    9.868910   32.746600      6.0000      15.9994
      92     2 H    1    6.116460   10.378800   32.505300      1.0000       1.0079
      93     2 H    1    7.186010    9.714020   31.813200      1.0000       1.0079
      94     1 O    8    3.795150    3.197410   35.415900      6.0000      15.9994
      95     2 H    1    3.187510    3.057030   36.221700      1.0000       1.0079
      96     2 H    1    4.051170    4.183760   35.381200      1.0000       1.0079
      97     1 O    8    5.253880    0.821987   33.142100      6.0000      15.9994
      98     2 H    1    5.240240    1.533020   32.494800      1.0000       1.0079
      99     2 H    1    5.604980    1.141680   33.997800      1.0000       1.0079
     100     1 O    8    5.463630    4.727940   25.944400      6.0000      15.9994
     101     2 H    1    6.162070    4.450900   25.241500      1.0000       1.0079
     102     2 H    1    5.994190    5.334980   26.510200      1.0000       1.0079
     103     1 O    8    8.428560    3.556870   28.276700      6.0000      15.9994
     104     2 H    1    7.936450    2.721800   28.030500      1.0000       1.0079
     105     2 H    1    9.268410    3.204390   28.619400      1.0000       1.0079
     106     1 O    8    6.894140    6.945860   31.309300      6.0000      15.9994
     107     2 H    1    6.061360    7.045480   31.760400      1.0000       1.0079
     108     2 H    1    6.901780    5.934590   31.150500      1.0000       1.0079
     109     1 O    8    1.426100    1.765810   28.675500      6.0000      15.9994
     110     2 H    1    2.269950    2.018940   28.172500      1.0000       1.0079
     111     2 H    1    0.801751    2.584630   28.713200      1.0000       1.0079
     112     1 O    8    1.618130    8.743340   23.421130      6.0000      15.9994
     113     2 H    1    2.464490    8.659080   23.849300      1.0000       1.0079
     114     2 H    1    1.547030    7.832720   23.048110      1.0000       1.0079
     115     1 O    8    7.336720    8.726500   37.659900      6.0000      15.9994
     116     2 H    1    7.001530    8.632890   38.608500      1.0000       1.0079
     117     2 H    1    7.078560    7.939720   37.157900      1.0000       1.0079
     118     1 O    8    9.719480    9.781050   38.025900      6.0000      15.9994
     119     2 H    1   10.386400    9.048550   38.125500      1.0000       1.0079
     120     2 H    1    8.869940    9.281330   38.128500      1.0000       1.0079
     121     1 O    8    3.527350    8.614190   30.630700      6.0000      15.9994
     122     2 H    1    4.294000    8.763790   29.984500      1.0000       1.0079
     123     2 H    1    3.036980    7.888570   30.255400      1.0000       1.0079
     124     1 O    8    9.802940    1.174110   23.213680      6.0000      15.9994
     125     2 H    1    9.980200    1.322940   22.251890      1.0000       1.0079
     126     2 H    1    8.804210    1.146790   23.327980      1.0000       1.0079
     127     1 O    8   10.166900    0.858744   27.889400      6.0000      15.9994
     128     2 H    1   11.063700    1.023950   28.247600      1.0000       1.0079
     129     2 H    1    9.815300    0.076615   28.343300      1.0000       1.0079
     130     1 O    8   10.867100    3.680800   29.278500      6.0000      15.9994
     131     2 H    1   11.025600    4.637000   29.116600      1.0000       1.0079
     132     2 H    1   10.620700    3.655020   30.218800      1.0000       1.0079
     133     1 O    8    5.020370    5.901730   39.118700      6.0000      15.9994
     134     2 H    1    5.859560    5.430690   38.995400      1.0000       1.0079
     135     2 H    1    4.445980    5.330900   39.713000      1.0000       1.0079
     136     1 O    8    9.518770    7.776160   30.534900      6.0000      15.9994
     137     2 H    1    8.684120    7.319090   30.656800      1.0000       1.0079
     138     2 H    1   10.142200    8.017850   31.292600      1.0000       1.0079
     139     1 O    8    7.593020    3.635910   24.256270      6.0000      15.9994
     140     2 H    1    8.453150    4.003200   23.865260      1.0000       1.0079
     141     2 H    1    7.195020    3.222400   23.456090      1.0000       1.0079
     142     1 O    8    8.271350    1.621380   25.854200      6.0000      15.9994
     143     2 H    1    7.955090    2.386760   25.235610      1.0000       1.0079
     144     2 H    1    9.149600    1.927090   26.172900      1.0000       1.0079
     145     1 O    8    9.668780    5.029720   23.578950      6.0000      15.9994
     146     2 H    1   10.591300    5.378920   24.009580      1.0000       1.0079
     147     2 H    1    9.749680    4.776080   22.612620      1.0000       1.0079
     148     1 O    8    2.191050    2.273390   37.398100      6.0000      15.9994
     149     2 H    1    1.395820    2.859860   37.418200      1.0000       1.0079
     150     2 H    1    1.874300    1.517170   36.800400      1.0000       1.0079
     151     1 O    8    8.093060    4.024700   36.343100      6.0000      15.9994
     152     2 H    1    7.795360    3.352250   35.729100      1.0000       1.0079
     153     2 H    1    9.055330    3.891920   36.561300      1.0000       1.0079
     154     1 O    8    8.702210    7.892790   33.942100      6.0000      15.9994
     155     2 H    1    7.907300    8.491700   33.712500      1.0000       1.0079
     156     2 H    1    9.426320    8.538500   34.126800      1.0000       1.0079
     157     1 O    8    6.302460    1.858300   35.725000      6.0000      15.9994
     158     2 H    1    5.478870    2.347350   35.650200      1.0000       1.0079
     159     2 H    1    6.145220    1.139940   36.401300      1.0000       1.0079
     160     1 O    8    6.220910   11.187200   37.585700      6.0000      15.9994
     161     2 H    1    6.583360    0.296751   38.400600      1.0000       1.0079
     162     2 H    1    6.646020   10.294900   37.417300      1.0000       1.0079
     163     1 O    8    4.301180    6.552850   32.599900      6.0000      15.9994
     164     2 H    1    3.992530    7.477670   32.545900      1.0000       1.0079
     165     2 H    1    4.480050    6.298900   33.560700      1.0000       1.0079
     166     1 O    8    0.316316   10.878800   25.852700      6.0000      15.9994
     167     2 H    1   10.798500   10.745300   25.263800      1.0000       1.0079
     168     2 H    1   11.174400    0.078841   26.645300      1.0000       1.0079
     169     1 O    8    0.906283    8.004210   26.980300      6.0000      15.9994
     170     2 H    1    0.509180    8.883510   27.009400      1.0000       1.0079
     171     2 H    1    0.632913    7.629360   27.816400      1.0000       1.0079
     172     1 O    8    5.904150    8.632330   29.356200      6.0000      15.9994
     173     2 H    1    6.256650    8.115530   30.121800      1.0000       1.0079
     174     2 H    1    5.900790    8.002490   28.598600      1.0000       1.0079
     175     1 O    8    2.458670    2.863810   31.104300      6.0000      15.9994
     176     2 H    1    2.186400    2.449570   30.239900      1.0000       1.0079
     177     2 H    1    3.476360    2.843330   31.013500      1.0000       1.0079
     178     1 O    8    3.463440    0.747966   25.558900      6.0000      15.9994
     179     2 H    1    3.372450   11.181200   26.075500      1.0000       1.0079
     180     2 H    1    2.570560    1.050860   25.512300      1.0000       1.0079
     181     1 O    8    3.146900    9.767880   35.564600      6.0000      15.9994
     182     2 H    1    3.312520    9.550630   34.642100      1.0000       1.0079
     183     2 H    1    3.097840    8.865460   36.037400      1.0000       1.0079
     184     1 O    8    3.230410    4.936370   24.686200      6.0000      15.9994
     185     2 H    1    3.424910    4.250100   23.991580      1.0000       1.0079
     186     2 H    1    4.016390    4.883770   25.255300      1.0000       1.0079
     187     1 O    8    9.509620    0.974789   31.613200      6.0000      15.9994
     188     2 H    1    9.077140    0.669014   32.477000      1.0000       1.0079
     189     2 H    1   10.486600    0.630209   31.635200      1.0000       1.0079
     190     1 O    8    7.322780    6.485290   27.302500      6.0000      15.9994
     191     2 H    1    7.558860    5.597070   27.657900      1.0000       1.0079
     192     2 H    1    8.176930    6.979610   27.037500      1.0000       1.0079
     193     1 O    8    9.833450    3.697750   31.924400      6.0000      15.9994
     194     2 H    1    9.581310    2.781660   31.972600      1.0000       1.0079
     195     2 H    1   10.252400    4.035810   32.720000      1.0000       1.0079
     196     1 O    8    4.899770    2.943110   23.344460      6.0000      15.9994
     197     2 H    1    4.567840    2.715420   22.486430      1.0000       1.0079
     198     2 H    1    4.954840    2.134100   23.921530      1.0000       1.0079
     199     1 O    8    7.434970    4.238560   30.680300      6.0000      15.9994
     200     2 H    1    7.748330    4.011690   29.778100      1.0000       1.0079
     201     2 H    1    8.325870    4.071390   31.220600      1.0000       1.0079
     202     1 O    8    3.007960   11.056400   22.700040      6.0000      15.9994
     203     2 H    1    2.500070    0.626618   23.030840      1.0000       1.0079
     204     2 H    1    2.324500   10.366200   22.860570      1.0000       1.0079
     205     1 O    8    9.893630    9.892820   35.172100      6.0000      15.9994
     206     2 H    1   10.707500   10.238100   35.574500      1.0000       1.0079
     207     2 H    1    9.500440    9.580900   36.021000      1.0000       1.0079
     208     1 O    8    4.844340    6.009130   35.191000      6.0000      15.9994
     209     2 H    1    4.242760    6.482040   35.826600      1.0000       1.0079
     210     2 H    1    5.745660    6.302790   35.387400      1.0000       1.0079
     211     1 O    8    3.237000   10.337300   32.915700      6.0000      15.9994
     212     2 H    1    3.408460    9.888910   32.081300      1.0000       1.0079
     213     2 H    1    3.962890   10.958300   33.140400      1.0000       1.0079
     214     1 O    8    7.149260    6.731310   35.986500      6.0000      15.9994
     215     2 H    1    7.525050    5.855170   36.179300      1.0000       1.0079
     216     2 H    1    7.841670    7.189850   35.421600      1.0000       1.0079
     217     1 O    8    3.542910    6.157190   22.855560      6.0000      15.9994
     218     2 H    1    3.918690    5.281050   23.048310      1.0000       1.0079
     219     2 H    1    4.235310    6.615740   22.290630      1.0000       1.0079
     220     3 Pt  78    0.085365   11.226500   20.325080     10.0000     195.0840
     221     3 Pt  78    2.887410    0.073801   20.328880     10.0000     195.0840
     222     3 Pt  78    5.710130    0.050102   20.378850     10.0000     195.0840
     223     3 Pt  78    8.545100    0.201211   20.443300     10.0000     195.0840
     224     3 Pt  78   11.117100    2.823240   20.441860     10.0000     195.0840
     225     3 Pt  78    2.682510    2.870110   20.374300     10.0000     195.0840
     226     3 Pt  78    5.637300    2.961250   20.310280     10.0000     195.0840
     227     3 Pt  78    8.434290    2.936140   20.274770     10.0000     195.0840
     228     3 Pt  78   11.025700    5.640120   20.341740     10.0000     195.0840
     229     3 Pt  78    2.780000    5.635590   20.315330     10.0000     195.0840
     230     3 Pt  78    5.542790    5.708510   20.433170     10.0000     195.0840
     231     3 Pt  78    8.342690    5.730310   20.308780     10.0000     195.0840
     232     3 Pt  78   11.187500    8.419820   20.395300     10.0000     195.0840
     233     3 Pt  78    2.809950    8.420570   20.400760     10.0000     195.0840
     234     3 Pt  78    5.571480    8.430410   20.242140     10.0000     195.0840
     235     3 Pt  78    8.324970    8.556340   20.327030     10.0000     195.0840
     236     3 Pt  78    1.405600    1.405600   18.294010     10.0000     195.0840
     237     3 Pt  78    4.217110    1.405600   18.294010     10.0000     195.0840
     238     3 Pt  78    7.028570    1.405600   18.294020     10.0000     195.0840
     239     3 Pt  78    9.840070    1.405600   18.294000     10.0000     195.0840
     240     3 Pt  78    1.405600    4.217110   18.294010     10.0000     195.0840
     241     3 Pt  78    4.217110    4.217110   18.294020     10.0000     195.0840
     242     3 Pt  78    7.028570    4.217100   18.294030     10.0000     195.0840
     243     3 Pt  78    9.840070    4.217100   18.294010     10.0000     195.0840
     244     3 Pt  78    1.405600    7.028570   18.294020     10.0000     195.0840
     245     3 Pt  78    4.217100    7.028570   18.294030     10.0000     195.0840
     246     3 Pt  78    7.028560    7.028560   18.294030     10.0000     195.0840
     247     3 Pt  78    9.840070    7.028570   18.294010     10.0000     195.0840
     248     3 Pt  78    1.405600    9.840070   18.294000     10.0000     195.0840
     249     3 Pt  78    4.217100    9.840070   18.294010     10.0000     195.0840
     250     3 Pt  78    7.028570    9.840070   18.294010     10.0000     195.0840
     251     3 Pt  78    9.840070    9.840070   18.294000     10.0000     195.0840
     252     3 Pt  78   11.245900   11.245900   16.262850     10.0000     195.0840
     253     3 Pt  78    2.811380   11.245900   16.262860     10.0000     195.0840
     254     3 Pt  78    5.622860   11.245900   16.262850     10.0000     195.0840
     255     3 Pt  78    8.434330   11.245900   16.262860     10.0000     195.0840
     256     3 Pt  78   11.245900    2.811380   16.262860     10.0000     195.0840
     257     3 Pt  78    2.811380    2.811380   16.262870     10.0000     195.0840
     258     3 Pt  78    5.622860    2.811380   16.262870     10.0000     195.0840
     259     3 Pt  78    8.434330    2.811380   16.262870     10.0000     195.0840
     260     3 Pt  78   11.245900    5.622860   16.262850     10.0000     195.0840
     261     3 Pt  78    2.811380    5.622860   16.262870     10.0000     195.0840
     262     3 Pt  78    5.622860    5.622860   16.262860     10.0000     195.0840
     263     3 Pt  78    8.434330    5.622860   16.262870     10.0000     195.0840
     264     3 Pt  78   11.245900    8.434330   16.262860     10.0000     195.0840
     265     3 Pt  78    2.811380    8.434330   16.262870     10.0000     195.0840
     266     3 Pt  78    5.622860    8.434330   16.262870     10.0000     195.0840
     267     3 Pt  78    8.434330    8.434330   16.262870     10.0000     195.0840
     268     3 Pt  78    1.405660    1.405660   14.212300     10.0000     195.0840
     269     3 Pt  78    4.217160    1.405660   14.212300     10.0000     195.0840
     270     3 Pt  78    7.028630    1.405660   14.212300     10.0000     195.0840
     271     3 Pt  78    9.840130    1.405660   14.212300     10.0000     195.0840
     272     3 Pt  78    1.405660    4.217160   14.212300     10.0000     195.0840
     273     3 Pt  78    4.217160    4.217160   14.212300     10.0000     195.0840
     274     3 Pt  78    7.028630    4.217160   14.212300     10.0000     195.0840
     275     3 Pt  78    9.840130    4.217160   14.212300     10.0000     195.0840
     276     3 Pt  78    1.405660    7.028630   14.212300     10.0000     195.0840
     277     3 Pt  78    4.217160    7.028630   14.212300     10.0000     195.0840
     278     3 Pt  78    7.028630    7.028630   14.212300     10.0000     195.0840
     279     3 Pt  78    9.840130    7.028630   14.212300     10.0000     195.0840
     280     3 Pt  78    1.405660    9.840130   14.212300     10.0000     195.0840
     281     3 Pt  78    4.217160    9.840130   14.212300     10.0000     195.0840
     282     3 Pt  78    7.028630    9.840130   14.212300     10.0000     195.0840
     283     3 Pt  78    9.840130    9.840130   14.212400     10.0000     195.0840
     284     3 Pt  78   11.245900   11.245900   12.181200     10.0000     195.0840
     285     3 Pt  78    2.811450   11.245900   12.181200     10.0000     195.0840
     286     3 Pt  78    5.622910   11.245900   12.181200     10.0000     195.0840
     287     3 Pt  78    8.434380   11.245900   12.181200     10.0000     195.0840
     288     3 Pt  78   11.245900    2.811450   12.181200     10.0000     195.0840
     289     3 Pt  78    2.811450    2.811450   12.181200     10.0000     195.0840
     290     3 Pt  78    5.622910    2.811450   12.181200     10.0000     195.0840
     291     3 Pt  78    8.434380    2.811450   12.181200     10.0000     195.0840
     292     3 Pt  78   11.245900    5.622910   12.181200     10.0000     195.0840
     293     3 Pt  78    2.811450    5.622910   12.181200     10.0000     195.0840
     294     3 Pt  78    5.622910    5.622910   12.181200     10.0000     195.0840
     295     3 Pt  78    8.434380    5.622910   12.181200     10.0000     195.0840
     296     3 Pt  78   11.245900    8.434380   12.181200     10.0000     195.0840
     297     3 Pt  78    2.811450    8.434380   12.181200     10.0000     195.0840
     298     3 Pt  78    5.622910    8.434380   12.181200     10.0000     195.0840
     299     3 Pt  78    8.434380    8.434380   12.181200     10.0000     195.0840
     300     3 Pt  78    1.440930    1.464970   10.092400     10.0000     195.0840
     301     3 Pt  78    4.341280    1.379190   10.085900     10.0000     195.0840
     302     3 Pt  78    7.036720    1.174070   10.084200     10.0000     195.0840
     303     3 Pt  78    9.960220    1.182910   10.042800     10.0000     195.0840
     304     3 Pt  78    1.475010    4.180300   10.142800     10.0000     195.0840
     305     3 Pt  78    4.361540    4.159080   10.059100     10.0000     195.0840
     306     3 Pt  78    7.154960    3.929370   10.118700     10.0000     195.0840
     307     3 Pt  78    9.952800    4.169080   10.057500     10.0000     195.0840
     308     3 Pt  78    1.420110    6.945940   10.118500     10.0000     195.0840
     309     3 Pt  78    4.245730    6.910170   10.067600     10.0000     195.0840
     310     3 Pt  78    6.960780    6.804930   10.210500     10.0000     195.0840
     311     3 Pt  78    9.814270    6.858700   10.000000     10.0000     195.0840
     312     3 Pt  78    1.429740    9.815540   10.144800     10.0000     195.0840
     313     3 Pt  78    4.262180    9.635980   10.187900     10.0000     195.0840
     314     3 Pt  78    6.993870    9.637700   10.100900     10.0000     195.0840
     315     3 Pt  78    9.699630    9.636540   10.078800     10.0000     195.0840




 SCF PARAMETERS         Density guess:                                   RESTART
                        --------------------------------------------------------
                        max_scf:                                             500
                        max_scf_history:                                       0
                        max_diis:                                              4
                        --------------------------------------------------------
                        eps_scf:                                        1.00E-06
                        eps_scf_history:                                0.00E+00
                        eps_diis:                                       1.00E-01
                        eps_eigval:                                     1.00E-05
                        --------------------------------------------------------
                        level_shift [a.u.]:                                 0.00
                        added MOs                                       500    0
                        --------------------------------------------------------
                        Mixing method:                            BROYDEN_MIXING
                                                charge density mixing in g-space
                        --------------------------------------------------------
                        Smear method:                                FERMI_DIRAC
                        Electronic temperature [K]:                        300.0
                        Electronic temperature [a.u.]:                  9.50E-04
                        Accuracy threshold:                             1.00E-10
                        --------------------------------------------------------
                        No outer SCF

 PW_GRID| Information for grid number                                          1
 PW_GRID| Grid distributed over                                    24 processors
 PW_GRID| Real space group dimensions                                    24    1
 PW_GRID| the grid is blocked:                                                NO
 PW_GRID| Cutoff [a.u.]                                                    200.0
 PW_GRID| spherical cutoff:                                                   NO
 PW_GRID|   Bounds   1            -67      67                Points:         135
 PW_GRID|   Bounds   2            -67      67                Points:         135
 PW_GRID|   Bounds   3           -378     377                Points:         756
 PW_GRID| Volume element (a.u.^3)  0.3717E-02     Volume (a.u.^3)     51208.7312
 PW_GRID| Grid span                                                    FULLSPACE
 PW_GRID|   Distribution                         Average         Max         Min
 PW_GRID|   G-Vectors                           574087.5      574155      574020
 PW_GRID|   G-Rays                                4252.5        4253        4252
 PW_GRID|   Real Space Points                   574087.5      612360      510300

 PW_GRID| Information for grid number                                          2
 PW_GRID| Number of the reference grid                                         1
 PW_GRID| Grid distributed over                                    24 processors
 PW_GRID| Real space group dimensions                                    24    1
 PW_GRID| the grid is blocked:                                                NO
 PW_GRID| Cutoff [a.u.]                                                     66.7
 PW_GRID| spherical cutoff:                                                   NO
 PW_GRID|   Bounds   1            -40      39                Points:          80
 PW_GRID|   Bounds   2            -40      39                Points:          80
 PW_GRID|   Bounds   3           -210     209                Points:         420
 PW_GRID| Volume element (a.u.^3)  0.1905E-01     Volume (a.u.^3)     51208.7312
 PW_GRID| Grid span                                                    FULLSPACE
 PW_GRID|   Distribution                         Average         Max         Min
 PW_GRID|   G-Vectors                           112000.0      113040      111440
 PW_GRID|   G-Rays                                1400.0        1413        1393
 PW_GRID|   Real Space Points                   112000.0      134400      100800

 PW_GRID| Information for grid number                                          3
 PW_GRID| Number of the reference grid                                         1
 PW_GRID| Grid distributed over                                    24 processors
 PW_GRID| Real space group dimensions                                    24    1
 PW_GRID| the grid is blocked:                                                NO
 PW_GRID| Cutoff [a.u.]                                                     22.2
 PW_GRID| spherical cutoff:                                                   NO
 PW_GRID|   Bounds   1            -22      22                Points:          45
 PW_GRID|   Bounds   2            -22      22                Points:          45
 PW_GRID|   Bounds   3           -126     125                Points:         252
 PW_GRID| Volume element (a.u.^3)  0.1004         Volume (a.u.^3)     51208.7312
 PW_GRID| Grid span                                                    FULLSPACE
 PW_GRID|   Distribution                         Average         Max         Min
 PW_GRID|   G-Vectors                            21262.5       21330       21150
 PW_GRID|   G-Rays                                 472.5         474         470
 PW_GRID|   Real Space Points                    21262.5       22680       11340

 PW_GRID| Information for grid number                                          4
 PW_GRID| Number of the reference grid                                         1
 PW_GRID| Grid distributed over                                    24 processors
 PW_GRID| Real space group dimensions                                    24    1
 PW_GRID| the grid is blocked:                                                NO
 PW_GRID| Cutoff [a.u.]                                                      7.4
 PW_GRID| spherical cutoff:                                                   NO
 PW_GRID|   Bounds   1            -13      13                Points:          27
 PW_GRID|   Bounds   2            -13      13                Points:          27
 PW_GRID|   Bounds   3            -70      69                Points:         140
 PW_GRID| Volume element (a.u.^3)  0.5018         Volume (a.u.^3)     51208.7312
 PW_GRID| Grid span                                                    FULLSPACE
 PW_GRID|   Distribution                         Average         Max         Min
 PW_GRID|   G-Vectors                             4252.5        4374        4158
 PW_GRID|   G-Rays                                 157.5         162         154
 PW_GRID|   Real Space Points                     4252.5        7560        3780

 POISSON| Solver                                          IMPLICIT (GENERALIZED)
 POISSON| Boundary Condition                                PERIODIC & DIRICHLET
 POISSON| Maximum number of iterations                                        30
 POISSON| Convergence threshold                                         1.00E-08
 POISSON| Dielectric Constant                                              80.00
 POISSON| Relaxation parameter                                          1.00E+00

 RS_GRID| Information for grid number                                          1
 RS_GRID|   Bounds   1            -67      67                Points:         135
 RS_GRID|   Bounds   2            -67      67                Points:         135
 RS_GRID|   Bounds   3           -378     377                Points:         756
 RS_GRID| Real space distribution over                                 24 groups
 RS_GRID| Real space distribution along direction                              3
 RS_GRID| Border size                                                         35
 RS_GRID|   Distribution                         Average         Max         Min
 RS_GRID|   Planes                                 101.5         102         101

 RS_GRID| Information for grid number                                          2
 RS_GRID|   Bounds   1            -40      39                Points:          80
 RS_GRID|   Bounds   2            -40      39                Points:          80
 RS_GRID|   Bounds   3           -210     209                Points:         420
 RS_GRID| Real space distribution over                                 24 groups
 RS_GRID| Real space distribution along direction                              3
 RS_GRID| Border size                                                         23
 RS_GRID|   Distribution                         Average         Max         Min
 RS_GRID|   Planes                                  63.5          64          63

 RS_GRID| Information for grid number                                          3
 RS_GRID|   Bounds   1            -22      22                Points:          45
 RS_GRID|   Bounds   2            -22      22                Points:          45
 RS_GRID|   Bounds   3           -126     125                Points:         252
 RS_GRID| Real space fully replicated
 RS_GRID| Group size                                                           1

 RS_GRID| Information for grid number                                          4
 RS_GRID|   Bounds   1            -13      13                Points:          27
 RS_GRID|   Bounds   2            -13      13                Points:          27
 RS_GRID|   Bounds   3            -70      69                Points:         140
 RS_GRID| Real space fully replicated
 RS_GRID| Group size                                                           1

 Number of electrons:                                                       1544
 Number of occupied orbitals:                                                772
 Number of molecular orbitals:                                              1272

 Number of orbital functions:                                               3599
 Number of independent orbital functions:                                   3599

 Extrapolation method: initial_guess

 *** WARNING in qs_initial_guess.F:309 :: User requested to restart the    ***
 *** wavefunction from the file named: cp2k-RESTART.wfn. This file does    ***
 *** not exist. Please check the existence of the file or change properly  ***
 *** the value of the keyword WFN_RESTART_FILE_NAME. Calculation continues ***
 *** using ATOMIC GUESS.                                                   ***


 Atomic guess: The first density matrix is obtained in terms of atomic orbitals
               and electronic configurations assigned to each atomic kind

 Guess for atomic kind: O

 Electronic structure
    Total number of core electrons                                          2.00
    Total number of valence electrons                                       6.00
    Total number of electrons                                               8.00
    Multiplicity                                                   not specified
    S   [  2.00] 2.00
    P      4.00


 *******************************************************************************
                  Iteration          Convergence                     Energy [au]
 *******************************************************************************
                          1        0.702811                     -15.577904332270
                          2        0.612408                     -15.588447180504
                          3        0.955344E-02                 -15.655871208406
                          4        0.223754E-02                 -15.655885053552
                          5        0.157183E-02                 -15.655885461027
                          6        0.124953E-02                 -15.655885607150
                          7        0.312011E-06                 -15.655885858066

 Energy components [Hartree]           Total Energy ::          -15.655885858066
                                        Band Energy ::           -2.983128125584
                                     Kinetic Energy ::           11.754765134683
                                   Potential Energy ::          -27.410650992749
                                      Virial (-V/T) ::            2.331875684345
                                        Core Energy ::          -26.153522949071
                                          XC Energy ::           -3.157392363346
                                     Coulomb Energy ::           13.655029454351
                       Total Pseudopotential Energy ::          -37.943026860963
                       Local Pseudopotential Energy ::          -39.220419683052
                    Nonlocal Pseudopotential Energy ::            1.277392822089
                                        Confinement ::            0.347387772086

 Orbital energies  State     L     Occupation   Energy[a.u.]          Energy[eV]

                       1     0          2.000      -0.861522          -23.443215

                       1     1          4.000      -0.315021           -8.572154


 Total Electron Density at R=0:                                         0.000093

 Guess for atomic kind: H

 Electronic structure
    Total number of core electrons                                          0.00
    Total number of valence electrons                                       1.00
    Total number of electrons                                               1.00
    Multiplicity                                                   not specified
    S      1.00


 *******************************************************************************
                  Iteration          Convergence                     Energy [au]
 *******************************************************************************
                          1        0.250972E-02                  -0.375256815885
                          2        0.570752E-04                  -0.375258666164
                          3        0.832405E-09                  -0.375258667122

 Energy components [Hartree]           Total Energy ::           -0.375258667122
                                        Band Energy ::           -0.076317618391
                                     Kinetic Energy ::            0.771356566341
                                   Potential Energy ::           -1.146615233463
                                      Virial (-V/T) ::            1.486491829455
                                        Core Energy ::           -0.456090715790
                                          XC Energy ::           -0.314218627334
                                     Coulomb Energy ::            0.395050676003
                       Total Pseudopotential Energy ::           -1.238482237174
                       Local Pseudopotential Energy ::           -1.238482237174
                    Nonlocal Pseudopotential Energy ::            0.000000000000
[...]
  **** **** ******  **  PROGRAM ENDED AT                 2023-03-09 05:32:51.507
 ***** ** ***  *** **   PROGRAM RAN ON                                  c51-s001
 **    ****   ******    PROGRAM RAN BY                                     jxzhu
 ***** **    ** ** **   PROGRAM PROCESS ID                                 69997
  **** **  *******  **  PROGRAM STOPPED IN /data/jxzhu/2022_leiden/IntDielec/tes
                                           ts/workflow/test_eleceps/0.0

 *******************************************************************************
 *   ___                                                                       *
 *  /   \                                                                      *
 * [ABORT]                                                                     *
 *  \___/        mp_world_finalize: assert failed:  leaking communicators      *
 *    |                                                                        *
 *  O/|                                                                        *
 * /| |                                                                        *
 * / \                                           mpiwrap/message_passing.F:843 *
 *******************************************************************************


 *******************************************************************************
 *   ___                                                                       *
 *  /   \                                                                      *
 * [ABORT]                                                                     *
 *  \___/        mp_world_finalize: assert failed:  leaking communicators      *
 *    |                                                                        *
 *  O/|                                                                        *
 * /| |                                                                        *
 * / \                                           mpiwrap/message_passing.F:843 *
 *******************************************************************************


 *******************************************************************************
 *   ___                                                                       *
 *  /   \                                                                      *
 * [ABORT]                                                                     *
 *  \___/        mp_world_finalize: assert failed:  leaking communicators      *
 *    |                                                                        *
 *  O/|                                                                        *
 * /| |                                                                        *
 * / \                                           mpiwrap/message_passing.F:843 *
 *******************************************************************************


 *******************************************************************************
 *   ___                                                                       *
 *  /   \                                                                      *
 * [ABORT]                                                                     *
 *  \___/        mp_world_finalize: assert failed:  leaking communicators      *
 *    |                                                                        *
 *  O/|                                                                        *
 * /| |                                                                        *
 * / \                                           mpiwrap/message_passing.F:843 *
 *******************************************************************************


 *******************************************************************************
 *   ___                                                                       *
 *  /   \                                                                      *
 * [ABORT]                                                                     *
 *  \___/        mp_world_finalize: assert failed:  leaking communicators      *
 *    |                                                                        *
 *  O/|                                                                        *
 * /| |                                                                        *
 * / \                                           mpiwrap/message_passing.F:843 *
 *******************************************************************************


 *******************************************************************************
 *   ___                                                                       *
 *  /   \                                                                      *
 * [ABORT]                                                                     *
 *  \___/        mp_world_finalize: assert failed:  leaking communicators      *
 *    |                                                                        *
 *  O/|                                                                        *
 * /| |                                                                        *
 * / \                                           mpiwrap/message_passing.F:843 *
 *******************************************************************************


 *******************************************************************************
 *   ___                                                                       *
 *  /   \                                                                      *
 * [ABORT]                                                                     *
 *  \___/        mp_world_finalize: assert failed:  leaking communicators      *
 *    |                                                                        *
 *  O/|                                                                        *
 * /| |                                                                        *
 * / \                                           mpiwrap/message_passing.F:843 *
 *******************************************************************************


 *******************************************************************************
 *   ___                                                                       *
 *  /   \                                                                      *
 * [ABORT]                                                                     *
 *  \___/        mp_world_finalize: assert failed:  leaking communicators      *
 *    |                                                                        *
 *  O/|                                                                        *
 * /| |                                                                        *
 * / \                                           mpiwrap/message_passing.F:843 *
 *******************************************************************************


 *******************************************************************************
 *   ___                                                                       *
 *  /   \                                                                      *
 * [ABORT]                                                                     *
 *  \___/        mp_world_finalize: assert failed:  leaking communicators      *
 *    |                                                                        *
 *  O/|                                                                        *
 * /| |                                                                        *
 * / \                                           mpiwrap/message_passing.F:843 *
 *******************************************************************************


 *******************************************************************************
 *   ___                                                                       *
 *  /   \                                                                      *
 * [ABORT]                                                                     *
 *  \___/        mp_world_finalize: assert failed:  leaking communicators      *
 *    |                                                                        *
 *  O/|                                                                        *
 * /| |                                                                        *
 * / \                                           mpiwrap/message_passing.F:843 *
 *******************************************************************************


 *******************************************************************************
 *   ___                                                                       *
 *  /   \                                                                      *
 * [ABORT]                                                                     *
 *  \___/        mp_world_finalize: assert failed:  leaking communicators      *
 *    |                                                                        *
 *  O/|                                                                        *
 * /| |                                                                        *
 * / \                                           mpiwrap/message_passing.F:843 *
 *******************************************************************************


 *******************************************************************************
 *   ___                                                                       *
 *  /   \                                                                      *
 * [ABORT]                                                                     *
 *  \___/        mp_world_finalize: assert failed:  leaking communicators      *
 *    |                                                                        *
 *  O/|                                                                        *
 * /| |                                                                        *
 * / \                                           mpiwrap/message_passing.F:843 *
 *******************************************************************************


 *******************************************************************************
 *   ___                                                                       *
 *  /   \                                                                      *
 * [ABORT]                                                                     *
 *  \___/        mp_world_finalize: assert failed:  leaking communicators      *
 *    |                                                                        *
 *  O/|                                                                        *
 * /| |                                                                        *
 * / \                                           mpiwrap/message_passing.F:843 *
 *******************************************************************************


 *******************************************************************************
 *   ___                                                                       *
 *  /   \                                                                      *
 * [ABORT]                                                                     *
 *  \___/        mp_world_finalize: assert failed:  leaking communicators      *
 *    |                                                                        *
 *  O/|                                                                        *
 * /| |                                                                        *
 * / \                                           mpiwrap/message_passing.F:843 *
 *******************************************************************************


 *******************************************************************************
 *   ___                                                                       *
 *  /   \                                                                      *
 * [ABORT]                                                                     *
 *  \___/        mp_world_finalize: assert failed:  leaking communicators      *
 *    |                                                                        *
 *  O/|                                                                        *
 * /| |                                                                        *
 * / \                                           mpiwrap/message_passing.F:843 *
 *******************************************************************************


 *******************************************************************************
 *   ___                                                                       *
 *  /   \                                                                      *
 * [ABORT]                                                                     *
 *  \___/        mp_world_finalize: assert failed:  leaking communicators      *
 *    |                                                                        *
 *  O/|                                                                        *
 * /| |                                                                        *
 * / \                                           mpiwrap/message_passing.F:843 *
 *******************************************************************************


 *******************************************************************************
 *   ___                                                                       *
 *  /   \                                                                      *
 * [ABORT]                                                                     *
 *  \___/        mp_world_finalize: assert failed:  leaking communicators      *
 *    |                                                                        *
 *  O/|                                                                        *
 * /| |                                                                        *
 * / \                                           mpiwrap/message_passing.F:843 *
 *******************************************************************************


 *******************************************************************************
 *   ___                                                                       *
 *  /   \                                                                      *
 * [ABORT]                                                                     *
 *  \___/        mp_world_finalize: assert failed:  leaking communicators      *
 *    |                                                                        *
 *  O/|                                                                        *
 * /| |                                                                        *
 * / \                                           mpiwrap/message_passing.F:843 *
 *******************************************************************************


 *******************************************************************************
 *   ___                                                                       *
 *  /   \                                                                      *
 * [ABORT]                                                                     *
 *  \___/        mp_world_finalize: assert failed:  leaking communicators      *
 *    |                                                                        *
 *  O/|                                                                        *
 * /| |                                                                        *
 * / \                                           mpiwrap/message_passing.F:843 *
 *******************************************************************************


 *******************************************************************************
 *   ___                                                                       *
 *  /   \                                                                      *
 * [ABORT]                                                                     *
 *  \___/        mp_world_finalize: assert failed:  leaking communicators      *
 *    |                                                                        *
 *  O/|                                                                        *
 * /| |                                                                        *
 * / \                                           mpiwrap/message_passing.F:843 *
 *******************************************************************************


 *******************************************************************************
 *   ___                                                                       *
 *  /   \                                                                      *
 * [ABORT]                                                                     *
 *  \___/        mp_world_finalize: assert failed:  leaking communicators      *
 *    |                                                                        *
 *  O/|                                                                        *
 * /| |                                                                        *
 * / \                                           mpiwrap/message_passing.F:843 *
 *******************************************************************************


 *******************************************************************************
 *   ___                                                                       *
 *  /   \                                                                      *
 * [ABORT]                                                                     *
 *  \___/        mp_world_finalize: assert failed:  leaking communicators      *
 *    |                                                                        *
 *  O/|                                                                        *
 * /| |                                                                        *
 * / \                                           mpiwrap/message_passing.F:843 *
 *******************************************************************************


 *******************************************************************************
 *   ___                                                                       *
 *  /   \                                                                      *
 * [ABORT]                                                                     *
 *  \___/        mp_world_finalize: assert failed:  leaking communicators      *
 *    |                                                                        *
 *  O/|                                                                        *
 * /| |                                                                        *
 * / \                                           mpiwrap/message_passing.F:843 *
 *******************************************************************************


 *******************************************************************************
 *   ___                                                                       *
 *  /   \                                                                      *
 * [ABORT]                                                                     *
 *  \___/        mp_world_finalize: assert failed:  leaking communicators      *
 *    |                                                                        *
 *  O/|                                                                        *
 * /| |                                                                        *
 * / \                                           mpiwrap/message_passing.F:843 *
 *******************************************************************************

